+ 0.8 0 3 tcp 40 ------- 0 0.0 4.0 0 0
- 0.8 0 3 tcp 40 ------- 0 0.0 4.0 0 0
r 0.850107 0 3 tcp 40 ------- 0 0.0 4.0 0 0
+ 0.850107 3 1 tcp 40 ------- 0 0.0 4.0 0 0
- 0.850107 3 1 tcp 40 ------- 0 0.0 4.0 0 0
r 1.38344 3 1 tcp 40 ------- 0 0.0 4.0 0 0
+ 1.38344 1 2 tcp 40 ------- 0 0.0 4.0 0 0
- 1.38344 1 2 tcp 40 ------- 0 0.0 4.0 0 0
r 1.916773 1 2 tcp 40 ------- 0 0.0 4.0 0 0
+ 1.916773 2 4 tcp 40 ------- 0 0.0 4.0 0 0
- 1.916773 2 4 tcp 40 ------- 0 0.0 4.0 0 0
r 1.92688 2 4 tcp 40 ------- 0 0.0 4.0 0 0
+ 1.92688 4 2 ack 40 ------- 0 4.0 0.0 0 1
- 1.92688 4 2 ack 40 ------- 0 4.0 0.0 0 1
r 1.936987 4 2 ack 40 ------- 0 4.0 0.0 0 1
+ 1.936987 2 1 ack 40 ------- 0 4.0 0.0 0 1
- 1.936987 2 1 ack 40 ------- 0 4.0 0.0 0 1
r 2.47032 2 1 ack 40 ------- 0 4.0 0.0 0 1
+ 2.47032 1 3 ack 40 ------- 0 4.0 0.0 0 1
- 2.47032 1 3 ack 40 ------- 0 4.0 0.0 0 1
r 3.003653 1 3 ack 40 ------- 0 4.0 0.0 0 1
+ 3.003653 3 0 ack 40 ------- 0 4.0 0.0 0 1
- 3.003653 3 0 ack 40 ------- 0 4.0 0.0 0 1
r 3.05376 3 0 ack 40 ------- 0 4.0 0.0 0 1
+ 3.05376 0 3 tcp 1040 ------- 0 0.0 4.0 1 2
- 3.05376 0 3 tcp 1040 ------- 0 0.0 4.0 1 2
+ 3.05376 0 3 tcp 1040 ------- 0 0.0 4.0 2 3
- 3.056533 0 3 tcp 1040 ------- 0 0.0 4.0 2 3
r 3.106533 0 3 tcp 1040 ------- 0 0.0 4.0 1 2
+ 3.106533 3 1 tcp 1040 ------- 0 0.0 4.0 1 2
- 3.106533 3 1 tcp 1040 ------- 0 0.0 4.0 1 2
r 3.109307 0 3 tcp 1040 ------- 0 0.0 4.0 2 3
+ 3.109307 3 1 tcp 1040 ------- 0 0.0 4.0 2 3
- 3.9732 3 1 tcp 1040 ------- 0 0.0 4.0 2 3
r 4.4732 3 1 tcp 1040 ------- 0 0.0 4.0 1 2
+ 4.4732 1 2 tcp 1040 ------- 0 0.0 4.0 1 2
- 4.4732 1 2 tcp 1040 ------- 0 0.0 4.0 1 2
r 5.339867 3 1 tcp 1040 ------- 0 0.0 4.0 2 3
+ 5.339867 1 2 tcp 1040 ------- 0 0.0 4.0 2 3
- 5.339867 1 2 tcp 1040 ------- 0 0.0 4.0 2 3
r 5.839867 1 2 tcp 1040 ------- 0 0.0 4.0 1 2
+ 5.839867 2 4 tcp 1040 ------- 0 0.0 4.0 1 2
- 5.839867 2 4 tcp 1040 ------- 0 0.0 4.0 1 2
r 5.85264 2 4 tcp 1040 ------- 0 0.0 4.0 1 2
+ 5.85264 4 2 ack 40 ------- 0 4.0 0.0 1 4
- 5.85264 4 2 ack 40 ------- 0 4.0 0.0 1 4
r 5.862747 4 2 ack 40 ------- 0 4.0 0.0 1 4
+ 5.862747 2 1 ack 40 ------- 0 4.0 0.0 1 4
- 5.862747 2 1 ack 40 ------- 0 4.0 0.0 1 4
r 6.39608 2 1 ack 40 ------- 0 4.0 0.0 1 4
+ 6.39608 1 3 ack 40 ------- 0 4.0 0.0 1 4
- 6.39608 1 3 ack 40 ------- 0 4.0 0.0 1 4
r 6.706533 1 2 tcp 1040 ------- 0 0.0 4.0 2 3
+ 6.706533 2 4 tcp 1040 ------- 0 0.0 4.0 2 3
- 6.706533 2 4 tcp 1040 ------- 0 0.0 4.0 2 3
r 6.719307 2 4 tcp 1040 ------- 0 0.0 4.0 2 3
+ 6.719307 4 2 ack 40 ------- 0 4.0 0.0 2 5
- 6.719307 4 2 ack 40 ------- 0 4.0 0.0 2 5
r 6.729413 4 2 ack 40 ------- 0 4.0 0.0 2 5
+ 6.729413 2 1 ack 40 ------- 0 4.0 0.0 2 5
- 6.729413 2 1 ack 40 ------- 0 4.0 0.0 2 5
r 6.929413 1 3 ack 40 ------- 0 4.0 0.0 1 4
+ 6.929413 3 0 ack 40 ------- 0 4.0 0.0 1 4
- 6.929413 3 0 ack 40 ------- 0 4.0 0.0 1 4
r 6.97952 3 0 ack 40 ------- 0 4.0 0.0 1 4
+ 6.97952 0 3 tcp 1040 ------- 0 0.0 4.0 3 6
- 6.97952 0 3 tcp 1040 ------- 0 0.0 4.0 3 6
+ 6.97952 0 3 tcp 1040 ------- 0 0.0 4.0 4 7
- 6.982293 0 3 tcp 1040 ------- 0 0.0 4.0 4 7
r 7.032293 0 3 tcp 1040 ------- 0 0.0 4.0 3 6
+ 7.032293 3 1 tcp 1040 ------- 0 0.0 4.0 3 6
- 7.032293 3 1 tcp 1040 ------- 0 0.0 4.0 3 6
r 7.035067 0 3 tcp 1040 ------- 0 0.0 4.0 4 7
+ 7.035067 3 1 tcp 1040 ------- 0 0.0 4.0 4 7
r 7.262747 2 1 ack 40 ------- 0 4.0 0.0 2 5
+ 7.262747 1 3 ack 40 ------- 0 4.0 0.0 2 5
- 7.262747 1 3 ack 40 ------- 0 4.0 0.0 2 5
r 7.79608 1 3 ack 40 ------- 0 4.0 0.0 2 5
+ 7.79608 3 0 ack 40 ------- 0 4.0 0.0 2 5
- 7.79608 3 0 ack 40 ------- 0 4.0 0.0 2 5
r 7.846187 3 0 ack 40 ------- 0 4.0 0.0 2 5
+ 7.846187 0 3 tcp 1040 ------- 0 0.0 4.0 5 8
- 7.846187 0 3 tcp 1040 ------- 0 0.0 4.0 5 8
+ 7.846187 0 3 tcp 1040 ------- 0 0.0 4.0 6 9
- 7.84896 0 3 tcp 1040 ------- 0 0.0 4.0 6 9
- 7.89896 3 1 tcp 1040 ------- 0 0.0 4.0 4 7
r 7.89896 0 3 tcp 1040 ------- 0 0.0 4.0 5 8
+ 7.89896 3 1 tcp 1040 ------- 0 0.0 4.0 5 8
r 7.901733 0 3 tcp 1040 ------- 0 0.0 4.0 6 9
+ 7.901733 3 1 tcp 1040 ------- 0 0.0 4.0 6 9
r 8.39896 3 1 tcp 1040 ------- 0 0.0 4.0 3 6
+ 8.39896 1 2 tcp 1040 ------- 0 0.0 4.0 3 6
- 8.39896 1 2 tcp 1040 ------- 0 0.0 4.0 3 6
- 8.765627 3 1 tcp 1040 ------- 0 0.0 4.0 5 8
r 9.265627 3 1 tcp 1040 ------- 0 0.0 4.0 4 7
+ 9.265627 1 2 tcp 1040 ------- 0 0.0 4.0 4 7
- 9.265627 1 2 tcp 1040 ------- 0 0.0 4.0 4 7
- 9.632293 3 1 tcp 1040 ------- 0 0.0 4.0 6 9
r 9.765627 1 2 tcp 1040 ------- 0 0.0 4.0 3 6
+ 9.765627 2 4 tcp 1040 ------- 0 0.0 4.0 3 6
- 9.765627 2 4 tcp 1040 ------- 0 0.0 4.0 3 6
r 9.7784 2 4 tcp 1040 ------- 0 0.0 4.0 3 6
+ 9.7784 4 2 ack 40 ------- 0 4.0 0.0 3 10
- 9.7784 4 2 ack 40 ------- 0 4.0 0.0 3 10
r 9.788507 4 2 ack 40 ------- 0 4.0 0.0 3 10
+ 9.788507 2 1 ack 40 ------- 0 4.0 0.0 3 10
- 9.788507 2 1 ack 40 ------- 0 4.0 0.0 3 10
r 10.132293 3 1 tcp 1040 ------- 0 0.0 4.0 5 8
+ 10.132293 1 2 tcp 1040 ------- 0 0.0 4.0 5 8
- 10.132293 1 2 tcp 1040 ------- 0 0.0 4.0 5 8
r 10.32184 2 1 ack 40 ------- 0 4.0 0.0 3 10
+ 10.32184 1 3 ack 40 ------- 0 4.0 0.0 3 10
- 10.32184 1 3 ack 40 ------- 0 4.0 0.0 3 10
r 10.632293 1 2 tcp 1040 ------- 0 0.0 4.0 4 7
+ 10.632293 2 4 tcp 1040 ------- 0 0.0 4.0 4 7
- 10.632293 2 4 tcp 1040 ------- 0 0.0 4.0 4 7
r 10.645067 2 4 tcp 1040 ------- 0 0.0 4.0 4 7
+ 10.645067 4 2 ack 40 ------- 0 4.0 0.0 4 11
- 10.645067 4 2 ack 40 ------- 0 4.0 0.0 4 11
r 10.655173 4 2 ack 40 ------- 0 4.0 0.0 4 11
+ 10.655173 2 1 ack 40 ------- 0 4.0 0.0 4 11
- 10.655173 2 1 ack 40 ------- 0 4.0 0.0 4 11
r 10.855173 1 3 ack 40 ------- 0 4.0 0.0 3 10
+ 10.855173 3 0 ack 40 ------- 0 4.0 0.0 3 10
- 10.855173 3 0 ack 40 ------- 0 4.0 0.0 3 10
r 10.90528 3 0 ack 40 ------- 0 4.0 0.0 3 10
+ 10.90528 0 3 tcp 1040 ------- 0 0.0 4.0 7 12
- 10.90528 0 3 tcp 1040 ------- 0 0.0 4.0 7 12
+ 10.90528 0 3 tcp 1040 ------- 0 0.0 4.0 8 13
- 10.908053 0 3 tcp 1040 ------- 0 0.0 4.0 8 13
r 10.958053 0 3 tcp 1040 ------- 0 0.0 4.0 7 12
+ 10.958053 3 1 tcp 1040 ------- 0 0.0 4.0 7 12
- 10.958053 3 1 tcp 1040 ------- 0 0.0 4.0 7 12
r 10.960827 0 3 tcp 1040 ------- 0 0.0 4.0 8 13
+ 10.960827 3 1 tcp 1040 ------- 0 0.0 4.0 8 13
r 10.99896 3 1 tcp 1040 ------- 0 0.0 4.0 6 9
+ 10.99896 1 2 tcp 1040 ------- 0 0.0 4.0 6 9
- 10.99896 1 2 tcp 1040 ------- 0 0.0 4.0 6 9
r 11.188507 2 1 ack 40 ------- 0 4.0 0.0 4 11
+ 11.188507 1 3 ack 40 ------- 0 4.0 0.0 4 11
- 11.188507 1 3 ack 40 ------- 0 4.0 0.0 4 11
r 11.49896 1 2 tcp 1040 ------- 0 0.0 4.0 5 8
+ 11.49896 2 4 tcp 1040 ------- 0 0.0 4.0 5 8
- 11.49896 2 4 tcp 1040 ------- 0 0.0 4.0 5 8
r 11.511733 2 4 tcp 1040 ------- 0 0.0 4.0 5 8
+ 11.511733 4 2 ack 40 ------- 0 4.0 0.0 5 14
- 11.511733 4 2 ack 40 ------- 0 4.0 0.0 5 14
r 11.52184 4 2 ack 40 ------- 0 4.0 0.0 5 14
+ 11.52184 2 1 ack 40 ------- 0 4.0 0.0 5 14
- 11.52184 2 1 ack 40 ------- 0 4.0 0.0 5 14
r 11.72184 1 3 ack 40 ------- 0 4.0 0.0 4 11
+ 11.72184 3 0 ack 40 ------- 0 4.0 0.0 4 11
- 11.72184 3 0 ack 40 ------- 0 4.0 0.0 4 11
r 11.771947 3 0 ack 40 ------- 0 4.0 0.0 4 11
+ 11.771947 0 3 tcp 1040 ------- 0 0.0 4.0 9 15
- 11.771947 0 3 tcp 1040 ------- 0 0.0 4.0 9 15
+ 11.771947 0 3 tcp 1040 ------- 0 0.0 4.0 10 16
- 11.77472 0 3 tcp 1040 ------- 0 0.0 4.0 10 16
- 11.82472 3 1 tcp 1040 ------- 0 0.0 4.0 8 13
r 11.82472 0 3 tcp 1040 ------- 0 0.0 4.0 9 15
+ 11.82472 3 1 tcp 1040 ------- 0 0.0 4.0 9 15
r 11.827493 0 3 tcp 1040 ------- 0 0.0 4.0 10 16
+ 11.827493 3 1 tcp 1040 ------- 0 0.0 4.0 10 16
r 12.055173 2 1 ack 40 ------- 0 4.0 0.0 5 14
+ 12.055173 1 3 ack 40 ------- 0 4.0 0.0 5 14
- 12.055173 1 3 ack 40 ------- 0 4.0 0.0 5 14
r 12.32472 3 1 tcp 1040 ------- 0 0.0 4.0 7 12
+ 12.32472 1 2 tcp 1040 ------- 0 0.0 4.0 7 12
- 12.32472 1 2 tcp 1040 ------- 0 0.0 4.0 7 12
r 12.365627 1 2 tcp 1040 ------- 0 0.0 4.0 6 9
+ 12.365627 2 4 tcp 1040 ------- 0 0.0 4.0 6 9
- 12.365627 2 4 tcp 1040 ------- 0 0.0 4.0 6 9
r 12.3784 2 4 tcp 1040 ------- 0 0.0 4.0 6 9
+ 12.3784 4 2 ack 40 ------- 0 4.0 0.0 6 17
- 12.3784 4 2 ack 40 ------- 0 4.0 0.0 6 17
r 12.388507 4 2 ack 40 ------- 0 4.0 0.0 6 17
+ 12.388507 2 1 ack 40 ------- 0 4.0 0.0 6 17
- 12.388507 2 1 ack 40 ------- 0 4.0 0.0 6 17
r 12.588507 1 3 ack 40 ------- 0 4.0 0.0 5 14
+ 12.588507 3 0 ack 40 ------- 0 4.0 0.0 5 14
- 12.588507 3 0 ack 40 ------- 0 4.0 0.0 5 14
r 12.638613 3 0 ack 40 ------- 0 4.0 0.0 5 14
+ 12.638613 0 3 tcp 1040 ------- 0 0.0 4.0 11 18
- 12.638613 0 3 tcp 1040 ------- 0 0.0 4.0 11 18
+ 12.638613 0 3 tcp 1040 ------- 0 0.0 4.0 12 19
- 12.641387 0 3 tcp 1040 ------- 0 0.0 4.0 12 19
- 12.691387 3 1 tcp 1040 ------- 0 0.0 4.0 9 15
r 12.691387 0 3 tcp 1040 ------- 0 0.0 4.0 11 18
+ 12.691387 3 1 tcp 1040 ------- 0 0.0 4.0 11 18
r 12.69416 0 3 tcp 1040 ------- 0 0.0 4.0 12 19
+ 12.69416 3 1 tcp 1040 ------- 0 0.0 4.0 12 19
r 12.92184 2 1 ack 40 ------- 0 4.0 0.0 6 17
+ 12.92184 1 3 ack 40 ------- 0 4.0 0.0 6 17
- 12.92184 1 3 ack 40 ------- 0 4.0 0.0 6 17
r 13.191387 3 1 tcp 1040 ------- 0 0.0 4.0 8 13
+ 13.191387 1 2 tcp 1040 ------- 0 0.0 4.0 8 13
- 13.191387 1 2 tcp 1040 ------- 0 0.0 4.0 8 13
r 13.455173 1 3 ack 40 ------- 0 4.0 0.0 6 17
+ 13.455173 3 0 ack 40 ------- 0 4.0 0.0 6 17
- 13.455173 3 0 ack 40 ------- 0 4.0 0.0 6 17
r 13.50528 3 0 ack 40 ------- 0 4.0 0.0 6 17
+ 13.50528 0 3 tcp 1040 ------- 0 0.0 4.0 13 20
- 13.50528 0 3 tcp 1040 ------- 0 0.0 4.0 13 20
+ 13.50528 0 3 tcp 1040 ------- 0 0.0 4.0 14 21
- 13.508053 0 3 tcp 1040 ------- 0 0.0 4.0 14 21
- 13.558053 3 1 tcp 1040 ------- 0 0.0 4.0 10 16
r 13.558053 0 3 tcp 1040 ------- 0 0.0 4.0 13 20
+ 13.558053 3 1 tcp 1040 ------- 0 0.0 4.0 13 20
r 13.560827 0 3 tcp 1040 ------- 0 0.0 4.0 14 21
+ 13.560827 3 1 tcp 1040 ------- 0 0.0 4.0 14 21
r 13.691387 1 2 tcp 1040 ------- 0 0.0 4.0 7 12
+ 13.691387 2 4 tcp 1040 ------- 0 0.0 4.0 7 12
- 13.691387 2 4 tcp 1040 ------- 0 0.0 4.0 7 12
r 13.70416 2 4 tcp 1040 ------- 0 0.0 4.0 7 12
+ 13.70416 4 2 ack 40 ------- 0 4.0 0.0 7 22
- 13.70416 4 2 ack 40 ------- 0 4.0 0.0 7 22
r 13.714267 4 2 ack 40 ------- 0 4.0 0.0 7 22
+ 13.714267 2 1 ack 40 ------- 0 4.0 0.0 7 22
- 13.714267 2 1 ack 40 ------- 0 4.0 0.0 7 22
r 14.058053 3 1 tcp 1040 ------- 0 0.0 4.0 9 15
+ 14.058053 1 2 tcp 1040 ------- 0 0.0 4.0 9 15
- 14.058053 1 2 tcp 1040 ------- 0 0.0 4.0 9 15
r 14.2476 2 1 ack 40 ------- 0 4.0 0.0 7 22
+ 14.2476 1 3 ack 40 ------- 0 4.0 0.0 7 22
- 14.2476 1 3 ack 40 ------- 0 4.0 0.0 7 22
- 14.42472 3 1 tcp 1040 ------- 0 0.0 4.0 11 18
r 14.558053 1 2 tcp 1040 ------- 0 0.0 4.0 8 13
+ 14.558053 2 4 tcp 1040 ------- 0 0.0 4.0 8 13
- 14.558053 2 4 tcp 1040 ------- 0 0.0 4.0 8 13
r 14.570827 2 4 tcp 1040 ------- 0 0.0 4.0 8 13
+ 14.570827 4 2 ack 40 ------- 0 4.0 0.0 8 23
- 14.570827 4 2 ack 40 ------- 0 4.0 0.0 8 23
r 14.580933 4 2 ack 40 ------- 0 4.0 0.0 8 23
+ 14.580933 2 1 ack 40 ------- 0 4.0 0.0 8 23
- 14.580933 2 1 ack 40 ------- 0 4.0 0.0 8 23
r 14.780933 1 3 ack 40 ------- 0 4.0 0.0 7 22
+ 14.780933 3 0 ack 40 ------- 0 4.0 0.0 7 22
- 14.780933 3 0 ack 40 ------- 0 4.0 0.0 7 22
r 14.83104 3 0 ack 40 ------- 0 4.0 0.0 7 22
+ 14.83104 0 3 tcp 1040 ------- 0 0.0 4.0 15 24
- 14.83104 0 3 tcp 1040 ------- 0 0.0 4.0 15 24
+ 14.83104 0 3 tcp 1040 ------- 0 0.0 4.0 16 25
- 14.833813 0 3 tcp 1040 ------- 0 0.0 4.0 16 25
r 14.883813 0 3 tcp 1040 ------- 0 0.0 4.0 15 24
+ 14.883813 3 1 tcp 1040 ------- 0 0.0 4.0 15 24
r 14.886587 0 3 tcp 1040 ------- 0 0.0 4.0 16 25
+ 14.886587 3 1 tcp 1040 ------- 0 0.0 4.0 16 25
r 14.92472 3 1 tcp 1040 ------- 0 0.0 4.0 10 16
+ 14.92472 1 2 tcp 1040 ------- 0 0.0 4.0 10 16
- 14.92472 1 2 tcp 1040 ------- 0 0.0 4.0 10 16
r 15.114267 2 1 ack 40 ------- 0 4.0 0.0 8 23
+ 15.114267 1 3 ack 40 ------- 0 4.0 0.0 8 23
- 15.114267 1 3 ack 40 ------- 0 4.0 0.0 8 23
- 15.291387 3 1 tcp 1040 ------- 0 0.0 4.0 12 19
r 15.42472 1 2 tcp 1040 ------- 0 0.0 4.0 9 15
+ 15.42472 2 4 tcp 1040 ------- 0 0.0 4.0 9 15
- 15.42472 2 4 tcp 1040 ------- 0 0.0 4.0 9 15
r 15.437493 2 4 tcp 1040 ------- 0 0.0 4.0 9 15
+ 15.437493 4 2 ack 40 ------- 0 4.0 0.0 9 26
- 15.437493 4 2 ack 40 ------- 0 4.0 0.0 9 26
r 15.4476 4 2 ack 40 ------- 0 4.0 0.0 9 26
+ 15.4476 2 1 ack 40 ------- 0 4.0 0.0 9 26
- 15.4476 2 1 ack 40 ------- 0 4.0 0.0 9 26
r 15.6476 1 3 ack 40 ------- 0 4.0 0.0 8 23
+ 15.6476 3 0 ack 40 ------- 0 4.0 0.0 8 23
- 15.6476 3 0 ack 40 ------- 0 4.0 0.0 8 23
r 15.697707 3 0 ack 40 ------- 0 4.0 0.0 8 23
+ 15.697707 0 3 tcp 1040 ------- 0 0.0 4.0 17 27
- 15.697707 0 3 tcp 1040 ------- 0 0.0 4.0 17 27
+ 15.697707 0 3 tcp 1040 ------- 0 0.0 4.0 18 28
- 15.70048 0 3 tcp 1040 ------- 0 0.0 4.0 18 28
r 15.75048 0 3 tcp 1040 ------- 0 0.0 4.0 17 27
+ 15.75048 3 1 tcp 1040 ------- 0 0.0 4.0 17 27
r 15.753253 0 3 tcp 1040 ------- 0 0.0 4.0 18 28
+ 15.753253 3 1 tcp 1040 ------- 0 0.0 4.0 18 28
r 15.791387 3 1 tcp 1040 ------- 0 0.0 4.0 11 18
+ 15.791387 1 2 tcp 1040 ------- 0 0.0 4.0 11 18
- 15.791387 1 2 tcp 1040 ------- 0 0.0 4.0 11 18
r 15.980933 2 1 ack 40 ------- 0 4.0 0.0 9 26
+ 15.980933 1 3 ack 40 ------- 0 4.0 0.0 9 26
- 15.980933 1 3 ack 40 ------- 0 4.0 0.0 9 26
- 16.158053 3 1 tcp 1040 ------- 0 0.0 4.0 13 20
r 16.291387 1 2 tcp 1040 ------- 0 0.0 4.0 10 16
+ 16.291387 2 4 tcp 1040 ------- 0 0.0 4.0 10 16
- 16.291387 2 4 tcp 1040 ------- 0 0.0 4.0 10 16
r 16.30416 2 4 tcp 1040 ------- 0 0.0 4.0 10 16
+ 16.30416 4 2 ack 40 ------- 0 4.0 0.0 10 29
- 16.30416 4 2 ack 40 ------- 0 4.0 0.0 10 29
r 16.314267 4 2 ack 40 ------- 0 4.0 0.0 10 29
+ 16.314267 2 1 ack 40 ------- 0 4.0 0.0 10 29
- 16.314267 2 1 ack 40 ------- 0 4.0 0.0 10 29
r 16.514267 1 3 ack 40 ------- 0 4.0 0.0 9 26
+ 16.514267 3 0 ack 40 ------- 0 4.0 0.0 9 26
- 16.514267 3 0 ack 40 ------- 0 4.0 0.0 9 26
r 16.564373 3 0 ack 40 ------- 0 4.0 0.0 9 26
+ 16.564373 0 3 tcp 1040 ------- 0 0.0 4.0 19 30
- 16.564373 0 3 tcp 1040 ------- 0 0.0 4.0 19 30
+ 16.564373 0 3 tcp 1040 ------- 0 0.0 4.0 20 31
- 16.567147 0 3 tcp 1040 ------- 0 0.0 4.0 20 31
r 16.617147 0 3 tcp 1040 ------- 0 0.0 4.0 19 30
+ 16.617147 3 1 tcp 1040 ------- 0 0.0 4.0 19 30
r 16.61992 0 3 tcp 1040 ------- 0 0.0 4.0 20 31
+ 16.61992 3 1 tcp 1040 ------- 0 0.0 4.0 20 31
r 16.658053 3 1 tcp 1040 ------- 0 0.0 4.0 12 19
+ 16.658053 1 2 tcp 1040 ------- 0 0.0 4.0 12 19
- 16.658053 1 2 tcp 1040 ------- 0 0.0 4.0 12 19
r 16.8476 2 1 ack 40 ------- 0 4.0 0.0 10 29
+ 16.8476 1 3 ack 40 ------- 0 4.0 0.0 10 29
- 16.8476 1 3 ack 40 ------- 0 4.0 0.0 10 29
- 17.02472 3 1 tcp 1040 ------- 0 0.0 4.0 14 21
r 17.158053 1 2 tcp 1040 ------- 0 0.0 4.0 11 18
+ 17.158053 2 4 tcp 1040 ------- 0 0.0 4.0 11 18
- 17.158053 2 4 tcp 1040 ------- 0 0.0 4.0 11 18
r 17.170827 2 4 tcp 1040 ------- 0 0.0 4.0 11 18
+ 17.170827 4 2 ack 40 ------- 0 4.0 0.0 11 32
- 17.170827 4 2 ack 40 ------- 0 4.0 0.0 11 32
r 17.180933 4 2 ack 40 ------- 0 4.0 0.0 11 32
+ 17.180933 2 1 ack 40 ------- 0 4.0 0.0 11 32
- 17.180933 2 1 ack 40 ------- 0 4.0 0.0 11 32
r 17.380933 1 3 ack 40 ------- 0 4.0 0.0 10 29
+ 17.380933 3 0 ack 40 ------- 0 4.0 0.0 10 29
- 17.380933 3 0 ack 40 ------- 0 4.0 0.0 10 29
r 17.43104 3 0 ack 40 ------- 0 4.0 0.0 10 29
+ 17.43104 0 3 tcp 1040 ------- 0 0.0 4.0 21 33
- 17.43104 0 3 tcp 1040 ------- 0 0.0 4.0 21 33
+ 17.43104 0 3 tcp 1040 ------- 0 0.0 4.0 22 34
- 17.433813 0 3 tcp 1040 ------- 0 0.0 4.0 22 34
r 17.483813 0 3 tcp 1040 ------- 0 0.0 4.0 21 33
+ 17.483813 3 1 tcp 1040 ------- 0 0.0 4.0 21 33
r 17.486587 0 3 tcp 1040 ------- 0 0.0 4.0 22 34
+ 17.486587 3 1 tcp 1040 ------- 0 0.0 4.0 22 34
r 17.52472 3 1 tcp 1040 ------- 0 0.0 4.0 13 20
+ 17.52472 1 2 tcp 1040 ------- 0 0.0 4.0 13 20
- 17.52472 1 2 tcp 1040 ------- 0 0.0 4.0 13 20
r 17.714267 2 1 ack 40 ------- 0 4.0 0.0 11 32
+ 17.714267 1 3 ack 40 ------- 0 4.0 0.0 11 32
- 17.714267 1 3 ack 40 ------- 0 4.0 0.0 11 32
- 17.891387 3 1 tcp 1040 ------- 0 0.0 4.0 15 24
r 18.02472 1 2 tcp 1040 ------- 0 0.0 4.0 12 19
+ 18.02472 2 4 tcp 1040 ------- 0 0.0 4.0 12 19
- 18.02472 2 4 tcp 1040 ------- 0 0.0 4.0 12 19
r 18.037493 2 4 tcp 1040 ------- 0 0.0 4.0 12 19
+ 18.037493 4 2 ack 40 ------- 0 4.0 0.0 12 35
- 18.037493 4 2 ack 40 ------- 0 4.0 0.0 12 35
r 18.0476 4 2 ack 40 ------- 0 4.0 0.0 12 35
+ 18.0476 2 1 ack 40 ------- 0 4.0 0.0 12 35
- 18.0476 2 1 ack 40 ------- 0 4.0 0.0 12 35
r 18.2476 1 3 ack 40 ------- 0 4.0 0.0 11 32
+ 18.2476 3 0 ack 40 ------- 0 4.0 0.0 11 32
- 18.2476 3 0 ack 40 ------- 0 4.0 0.0 11 32
r 18.297707 3 0 ack 40 ------- 0 4.0 0.0 11 32
+ 18.297707 0 3 tcp 1040 ------- 0 0.0 4.0 23 36
- 18.297707 0 3 tcp 1040 ------- 0 0.0 4.0 23 36
+ 18.297707 0 3 tcp 1040 ------- 0 0.0 4.0 24 37
- 18.30048 0 3 tcp 1040 ------- 0 0.0 4.0 24 37
r 18.35048 0 3 tcp 1040 ------- 0 0.0 4.0 23 36
+ 18.35048 3 1 tcp 1040 ------- 0 0.0 4.0 23 36
r 18.353253 0 3 tcp 1040 ------- 0 0.0 4.0 24 37
+ 18.353253 3 1 tcp 1040 ------- 0 0.0 4.0 24 37
r 18.391387 3 1 tcp 1040 ------- 0 0.0 4.0 14 21
+ 18.391387 1 2 tcp 1040 ------- 0 0.0 4.0 14 21
- 18.391387 1 2 tcp 1040 ------- 0 0.0 4.0 14 21
r 18.580933 2 1 ack 40 ------- 0 4.0 0.0 12 35
+ 18.580933 1 3 ack 40 ------- 0 4.0 0.0 12 35
- 18.580933 1 3 ack 40 ------- 0 4.0 0.0 12 35
- 18.758053 3 1 tcp 1040 ------- 0 0.0 4.0 16 25
r 18.891387 1 2 tcp 1040 ------- 0 0.0 4.0 13 20
+ 18.891387 2 4 tcp 1040 ------- 0 0.0 4.0 13 20
- 18.891387 2 4 tcp 1040 ------- 0 0.0 4.0 13 20
r 18.90416 2 4 tcp 1040 ------- 0 0.0 4.0 13 20
+ 18.90416 4 2 ack 40 ------- 0 4.0 0.0 13 38
- 18.90416 4 2 ack 40 ------- 0 4.0 0.0 13 38
r 18.914267 4 2 ack 40 ------- 0 4.0 0.0 13 38
+ 18.914267 2 1 ack 40 ------- 0 4.0 0.0 13 38
- 18.914267 2 1 ack 40 ------- 0 4.0 0.0 13 38
r 19.114267 1 3 ack 40 ------- 0 4.0 0.0 12 35
+ 19.114267 3 0 ack 40 ------- 0 4.0 0.0 12 35
- 19.114267 3 0 ack 40 ------- 0 4.0 0.0 12 35
r 19.164373 3 0 ack 40 ------- 0 4.0 0.0 12 35
+ 19.164373 0 3 tcp 1040 ------- 0 0.0 4.0 25 39
- 19.164373 0 3 tcp 1040 ------- 0 0.0 4.0 25 39
+ 19.164373 0 3 tcp 1040 ------- 0 0.0 4.0 26 40
- 19.167147 0 3 tcp 1040 ------- 0 0.0 4.0 26 40
r 19.217147 0 3 tcp 1040 ------- 0 0.0 4.0 25 39
+ 19.217147 3 1 tcp 1040 ------- 0 0.0 4.0 25 39
r 19.21992 0 3 tcp 1040 ------- 0 0.0 4.0 26 40
+ 19.21992 3 1 tcp 1040 ------- 0 0.0 4.0 26 40
r 19.258053 3 1 tcp 1040 ------- 0 0.0 4.0 15 24
+ 19.258053 1 2 tcp 1040 ------- 0 0.0 4.0 15 24
- 19.258053 1 2 tcp 1040 ------- 0 0.0 4.0 15 24
r 19.4476 2 1 ack 40 ------- 0 4.0 0.0 13 38
+ 19.4476 1 3 ack 40 ------- 0 4.0 0.0 13 38
- 19.4476 1 3 ack 40 ------- 0 4.0 0.0 13 38
- 19.62472 3 1 tcp 1040 ------- 0 0.0 4.0 17 27
r 19.758053 1 2 tcp 1040 ------- 0 0.0 4.0 14 21
+ 19.758053 2 4 tcp 1040 ------- 0 0.0 4.0 14 21
- 19.758053 2 4 tcp 1040 ------- 0 0.0 4.0 14 21
r 19.770827 2 4 tcp 1040 ------- 0 0.0 4.0 14 21
+ 19.770827 4 2 ack 40 ------- 0 4.0 0.0 14 41
- 19.770827 4 2 ack 40 ------- 0 4.0 0.0 14 41
r 19.780933 4 2 ack 40 ------- 0 4.0 0.0 14 41
+ 19.780933 2 1 ack 40 ------- 0 4.0 0.0 14 41
- 19.780933 2 1 ack 40 ------- 0 4.0 0.0 14 41
r 19.980933 1 3 ack 40 ------- 0 4.0 0.0 13 38
+ 19.980933 3 0 ack 40 ------- 0 4.0 0.0 13 38
- 19.980933 3 0 ack 40 ------- 0 4.0 0.0 13 38
r 20.03104 3 0 ack 40 ------- 0 4.0 0.0 13 38
+ 20.03104 0 3 tcp 1040 ------- 0 0.0 4.0 27 42
- 20.03104 0 3 tcp 1040 ------- 0 0.0 4.0 27 42
+ 20.03104 0 3 tcp 1040 ------- 0 0.0 4.0 28 43
- 20.033813 0 3 tcp 1040 ------- 0 0.0 4.0 28 43
r 20.083813 0 3 tcp 1040 ------- 0 0.0 4.0 27 42
+ 20.083813 3 1 tcp 1040 ------- 0 0.0 4.0 27 42
r 20.086587 0 3 tcp 1040 ------- 0 0.0 4.0 28 43
+ 20.086587 3 1 tcp 1040 ------- 0 0.0 4.0 28 43
r 20.12472 3 1 tcp 1040 ------- 0 0.0 4.0 16 25
+ 20.12472 1 2 tcp 1040 ------- 0 0.0 4.0 16 25
- 20.12472 1 2 tcp 1040 ------- 0 0.0 4.0 16 25
r 20.314267 2 1 ack 40 ------- 0 4.0 0.0 14 41
+ 20.314267 1 3 ack 40 ------- 0 4.0 0.0 14 41
- 20.314267 1 3 ack 40 ------- 0 4.0 0.0 14 41
- 20.491387 3 1 tcp 1040 ------- 0 0.0 4.0 18 28
r 20.62472 1 2 tcp 1040 ------- 0 0.0 4.0 15 24
+ 20.62472 2 4 tcp 1040 ------- 0 0.0 4.0 15 24
- 20.62472 2 4 tcp 1040 ------- 0 0.0 4.0 15 24
r 20.637493 2 4 tcp 1040 ------- 0 0.0 4.0 15 24
+ 20.637493 4 2 ack 40 ------- 0 4.0 0.0 15 44
- 20.637493 4 2 ack 40 ------- 0 4.0 0.0 15 44
r 20.6476 4 2 ack 40 ------- 0 4.0 0.0 15 44
+ 20.6476 2 1 ack 40 ------- 0 4.0 0.0 15 44
- 20.6476 2 1 ack 40 ------- 0 4.0 0.0 15 44
r 20.8476 1 3 ack 40 ------- 0 4.0 0.0 14 41
+ 20.8476 3 0 ack 40 ------- 0 4.0 0.0 14 41
- 20.8476 3 0 ack 40 ------- 0 4.0 0.0 14 41
r 20.897707 3 0 ack 40 ------- 0 4.0 0.0 14 41
+ 20.897707 0 3 tcp 1040 ------- 0 0.0 4.0 29 45
- 20.897707 0 3 tcp 1040 ------- 0 0.0 4.0 29 45
+ 20.897707 0 3 tcp 1040 ------- 0 0.0 4.0 30 46
- 20.90048 0 3 tcp 1040 ------- 0 0.0 4.0 30 46
r 20.95048 0 3 tcp 1040 ------- 0 0.0 4.0 29 45
+ 20.95048 3 1 tcp 1040 ------- 0 0.0 4.0 29 45
r 20.953253 0 3 tcp 1040 ------- 0 0.0 4.0 30 46
+ 20.953253 3 1 tcp 1040 ------- 0 0.0 4.0 30 46
r 20.991387 3 1 tcp 1040 ------- 0 0.0 4.0 17 27
+ 20.991387 1 2 tcp 1040 ------- 0 0.0 4.0 17 27
- 20.991387 1 2 tcp 1040 ------- 0 0.0 4.0 17 27
r 21.180933 2 1 ack 40 ------- 0 4.0 0.0 15 44
+ 21.180933 1 3 ack 40 ------- 0 4.0 0.0 15 44
- 21.180933 1 3 ack 40 ------- 0 4.0 0.0 15 44
- 21.358053 3 1 tcp 1040 ------- 0 0.0 4.0 19 30
r 21.491387 1 2 tcp 1040 ------- 0 0.0 4.0 16 25
+ 21.491387 2 4 tcp 1040 ------- 0 0.0 4.0 16 25
- 21.491387 2 4 tcp 1040 ------- 0 0.0 4.0 16 25
r 21.50416 2 4 tcp 1040 ------- 0 0.0 4.0 16 25
+ 21.50416 4 2 ack 40 ------- 0 4.0 0.0 16 47
- 21.50416 4 2 ack 40 ------- 0 4.0 0.0 16 47
r 21.514267 4 2 ack 40 ------- 0 4.0 0.0 16 47
+ 21.514267 2 1 ack 40 ------- 0 4.0 0.0 16 47
- 21.514267 2 1 ack 40 ------- 0 4.0 0.0 16 47
r 21.714267 1 3 ack 40 ------- 0 4.0 0.0 15 44
+ 21.714267 3 0 ack 40 ------- 0 4.0 0.0 15 44
- 21.714267 3 0 ack 40 ------- 0 4.0 0.0 15 44
r 21.764373 3 0 ack 40 ------- 0 4.0 0.0 15 44
+ 21.764373 0 3 tcp 1040 ------- 0 0.0 4.0 31 48
- 21.764373 0 3 tcp 1040 ------- 0 0.0 4.0 31 48
+ 21.764373 0 3 tcp 1040 ------- 0 0.0 4.0 32 49
- 21.767147 0 3 tcp 1040 ------- 0 0.0 4.0 32 49
r 21.817147 0 3 tcp 1040 ------- 0 0.0 4.0 31 48
+ 21.817147 3 1 tcp 1040 ------- 0 0.0 4.0 31 48
r 21.81992 0 3 tcp 1040 ------- 0 0.0 4.0 32 49
+ 21.81992 3 1 tcp 1040 ------- 0 0.0 4.0 32 49
r 21.858053 3 1 tcp 1040 ------- 0 0.0 4.0 18 28
+ 21.858053 1 2 tcp 1040 ------- 0 0.0 4.0 18 28
- 21.858053 1 2 tcp 1040 ------- 0 0.0 4.0 18 28
r 22.0476 2 1 ack 40 ------- 0 4.0 0.0 16 47
+ 22.0476 1 3 ack 40 ------- 0 4.0 0.0 16 47
- 22.0476 1 3 ack 40 ------- 0 4.0 0.0 16 47
- 22.22472 3 1 tcp 1040 ------- 0 0.0 4.0 20 31
r 22.358053 1 2 tcp 1040 ------- 0 0.0 4.0 17 27
+ 22.358053 2 4 tcp 1040 ------- 0 0.0 4.0 17 27
- 22.358053 2 4 tcp 1040 ------- 0 0.0 4.0 17 27
r 22.370827 2 4 tcp 1040 ------- 0 0.0 4.0 17 27
+ 22.370827 4 2 ack 40 ------- 0 4.0 0.0 17 50
- 22.370827 4 2 ack 40 ------- 0 4.0 0.0 17 50
r 22.380933 4 2 ack 40 ------- 0 4.0 0.0 17 50
+ 22.380933 2 1 ack 40 ------- 0 4.0 0.0 17 50
- 22.380933 2 1 ack 40 ------- 0 4.0 0.0 17 50
r 22.580933 1 3 ack 40 ------- 0 4.0 0.0 16 47
+ 22.580933 3 0 ack 40 ------- 0 4.0 0.0 16 47
- 22.580933 3 0 ack 40 ------- 0 4.0 0.0 16 47
r 22.63104 3 0 ack 40 ------- 0 4.0 0.0 16 47
+ 22.63104 0 3 tcp 1040 ------- 0 0.0 4.0 33 51
- 22.63104 0 3 tcp 1040 ------- 0 0.0 4.0 33 51
+ 22.63104 0 3 tcp 1040 ------- 0 0.0 4.0 34 52
- 22.633813 0 3 tcp 1040 ------- 0 0.0 4.0 34 52
r 22.683813 0 3 tcp 1040 ------- 0 0.0 4.0 33 51
+ 22.683813 3 1 tcp 1040 ------- 0 0.0 4.0 33 51
r 22.686587 0 3 tcp 1040 ------- 0 0.0 4.0 34 52
+ 22.686587 3 1 tcp 1040 ------- 0 0.0 4.0 34 52
r 22.72472 3 1 tcp 1040 ------- 0 0.0 4.0 19 30
+ 22.72472 1 2 tcp 1040 ------- 0 0.0 4.0 19 30
- 22.72472 1 2 tcp 1040 ------- 0 0.0 4.0 19 30
r 22.914267 2 1 ack 40 ------- 0 4.0 0.0 17 50
+ 22.914267 1 3 ack 40 ------- 0 4.0 0.0 17 50
- 22.914267 1 3 ack 40 ------- 0 4.0 0.0 17 50
- 23.091387 3 1 tcp 1040 ------- 0 0.0 4.0 21 33
r 23.22472 1 2 tcp 1040 ------- 0 0.0 4.0 18 28
+ 23.22472 2 4 tcp 1040 ------- 0 0.0 4.0 18 28
- 23.22472 2 4 tcp 1040 ------- 0 0.0 4.0 18 28
r 23.237493 2 4 tcp 1040 ------- 0 0.0 4.0 18 28
+ 23.237493 4 2 ack 40 ------- 0 4.0 0.0 18 53
- 23.237493 4 2 ack 40 ------- 0 4.0 0.0 18 53
r 23.2476 4 2 ack 40 ------- 0 4.0 0.0 18 53
+ 23.2476 2 1 ack 40 ------- 0 4.0 0.0 18 53
- 23.2476 2 1 ack 40 ------- 0 4.0 0.0 18 53
r 23.4476 1 3 ack 40 ------- 0 4.0 0.0 17 50
+ 23.4476 3 0 ack 40 ------- 0 4.0 0.0 17 50
- 23.4476 3 0 ack 40 ------- 0 4.0 0.0 17 50
r 23.497707 3 0 ack 40 ------- 0 4.0 0.0 17 50
+ 23.497707 0 3 tcp 1040 ------- 0 0.0 4.0 35 54
- 23.497707 0 3 tcp 1040 ------- 0 0.0 4.0 35 54
+ 23.497707 0 3 tcp 1040 ------- 0 0.0 4.0 36 55
- 23.50048 0 3 tcp 1040 ------- 0 0.0 4.0 36 55
r 23.55048 0 3 tcp 1040 ------- 0 0.0 4.0 35 54
+ 23.55048 3 1 tcp 1040 ------- 0 0.0 4.0 35 54
r 23.553253 0 3 tcp 1040 ------- 0 0.0 4.0 36 55
+ 23.553253 3 1 tcp 1040 ------- 0 0.0 4.0 36 55
r 23.591387 3 1 tcp 1040 ------- 0 0.0 4.0 20 31
+ 23.591387 1 2 tcp 1040 ------- 0 0.0 4.0 20 31
- 23.591387 1 2 tcp 1040 ------- 0 0.0 4.0 20 31
r 23.780933 2 1 ack 40 ------- 0 4.0 0.0 18 53
+ 23.780933 1 3 ack 40 ------- 0 4.0 0.0 18 53
- 23.780933 1 3 ack 40 ------- 0 4.0 0.0 18 53
- 23.958053 3 1 tcp 1040 ------- 0 0.0 4.0 22 34
r 24.091387 1 2 tcp 1040 ------- 0 0.0 4.0 19 30
+ 24.091387 2 4 tcp 1040 ------- 0 0.0 4.0 19 30
- 24.091387 2 4 tcp 1040 ------- 0 0.0 4.0 19 30
r 24.10416 2 4 tcp 1040 ------- 0 0.0 4.0 19 30
+ 24.10416 4 2 ack 40 ------- 0 4.0 0.0 19 56
- 24.10416 4 2 ack 40 ------- 0 4.0 0.0 19 56
r 24.114267 4 2 ack 40 ------- 0 4.0 0.0 19 56
+ 24.114267 2 1 ack 40 ------- 0 4.0 0.0 19 56
- 24.114267 2 1 ack 40 ------- 0 4.0 0.0 19 56
r 24.314267 1 3 ack 40 ------- 0 4.0 0.0 18 53
+ 24.314267 3 0 ack 40 ------- 0 4.0 0.0 18 53
- 24.314267 3 0 ack 40 ------- 0 4.0 0.0 18 53
r 24.364373 3 0 ack 40 ------- 0 4.0 0.0 18 53
+ 24.364373 0 3 tcp 1040 ------- 0 0.0 4.0 37 57
- 24.364373 0 3 tcp 1040 ------- 0 0.0 4.0 37 57
+ 24.364373 0 3 tcp 1040 ------- 0 0.0 4.0 38 58
- 24.367147 0 3 tcp 1040 ------- 0 0.0 4.0 38 58
r 24.417147 0 3 tcp 1040 ------- 0 0.0 4.0 37 57
+ 24.417147 3 1 tcp 1040 ------- 0 0.0 4.0 37 57
r 24.41992 0 3 tcp 1040 ------- 0 0.0 4.0 38 58
+ 24.41992 3 1 tcp 1040 ------- 0 0.0 4.0 38 58
r 24.458053 3 1 tcp 1040 ------- 0 0.0 4.0 21 33
+ 24.458053 1 2 tcp 1040 ------- 0 0.0 4.0 21 33
- 24.458053 1 2 tcp 1040 ------- 0 0.0 4.0 21 33
r 24.6476 2 1 ack 40 ------- 0 4.0 0.0 19 56
+ 24.6476 1 3 ack 40 ------- 0 4.0 0.0 19 56
- 24.6476 1 3 ack 40 ------- 0 4.0 0.0 19 56
- 24.82472 3 1 tcp 1040 ------- 0 0.0 4.0 23 36
r 24.958053 1 2 tcp 1040 ------- 0 0.0 4.0 20 31
+ 24.958053 2 4 tcp 1040 ------- 0 0.0 4.0 20 31
- 24.958053 2 4 tcp 1040 ------- 0 0.0 4.0 20 31
r 24.970827 2 4 tcp 1040 ------- 0 0.0 4.0 20 31
+ 24.970827 4 2 ack 40 ------- 0 4.0 0.0 20 59
- 24.970827 4 2 ack 40 ------- 0 4.0 0.0 20 59
r 24.980933 4 2 ack 40 ------- 0 4.0 0.0 20 59
+ 24.980933 2 1 ack 40 ------- 0 4.0 0.0 20 59
- 24.980933 2 1 ack 40 ------- 0 4.0 0.0 20 59
r 25.180933 1 3 ack 40 ------- 0 4.0 0.0 19 56
+ 25.180933 3 0 ack 40 ------- 0 4.0 0.0 19 56
- 25.180933 3 0 ack 40 ------- 0 4.0 0.0 19 56
r 25.23104 3 0 ack 40 ------- 0 4.0 0.0 19 56
+ 25.23104 0 3 tcp 1040 ------- 0 0.0 4.0 39 60
- 25.23104 0 3 tcp 1040 ------- 0 0.0 4.0 39 60
r 25.283813 0 3 tcp 1040 ------- 0 0.0 4.0 39 60
+ 25.283813 3 1 tcp 1040 ------- 0 0.0 4.0 39 60
r 25.32472 3 1 tcp 1040 ------- 0 0.0 4.0 22 34
+ 25.32472 1 2 tcp 1040 ------- 0 0.0 4.0 22 34
- 25.32472 1 2 tcp 1040 ------- 0 0.0 4.0 22 34
r 25.514267 2 1 ack 40 ------- 0 4.0 0.0 20 59
+ 25.514267 1 3 ack 40 ------- 0 4.0 0.0 20 59
- 25.514267 1 3 ack 40 ------- 0 4.0 0.0 20 59
- 25.691387 3 1 tcp 1040 ------- 0 0.0 4.0 24 37
r 25.82472 1 2 tcp 1040 ------- 0 0.0 4.0 21 33
+ 25.82472 2 4 tcp 1040 ------- 0 0.0 4.0 21 33
- 25.82472 2 4 tcp 1040 ------- 0 0.0 4.0 21 33
r 25.837493 2 4 tcp 1040 ------- 0 0.0 4.0 21 33
+ 25.837493 4 2 ack 40 ------- 0 4.0 0.0 21 61
- 25.837493 4 2 ack 40 ------- 0 4.0 0.0 21 61
r 25.8476 4 2 ack 40 ------- 0 4.0 0.0 21 61
+ 25.8476 2 1 ack 40 ------- 0 4.0 0.0 21 61
- 25.8476 2 1 ack 40 ------- 0 4.0 0.0 21 61
r 26.0476 1 3 ack 40 ------- 0 4.0 0.0 20 59
+ 26.0476 3 0 ack 40 ------- 0 4.0 0.0 20 59
- 26.0476 3 0 ack 40 ------- 0 4.0 0.0 20 59
r 26.097707 3 0 ack 40 ------- 0 4.0 0.0 20 59
+ 26.097707 0 3 tcp 1040 ------- 0 0.0 4.0 40 62
- 26.097707 0 3 tcp 1040 ------- 0 0.0 4.0 40 62
r 26.15048 0 3 tcp 1040 ------- 0 0.0 4.0 40 62
+ 26.15048 3 1 tcp 1040 ------- 0 0.0 4.0 40 62
r 26.191387 3 1 tcp 1040 ------- 0 0.0 4.0 23 36
+ 26.191387 1 2 tcp 1040 ------- 0 0.0 4.0 23 36
- 26.191387 1 2 tcp 1040 ------- 0 0.0 4.0 23 36
r 26.380933 2 1 ack 40 ------- 0 4.0 0.0 21 61
+ 26.380933 1 3 ack 40 ------- 0 4.0 0.0 21 61
- 26.380933 1 3 ack 40 ------- 0 4.0 0.0 21 61
- 26.558053 3 1 tcp 1040 ------- 0 0.0 4.0 25 39
r 26.691387 1 2 tcp 1040 ------- 0 0.0 4.0 22 34
+ 26.691387 2 4 tcp 1040 ------- 0 0.0 4.0 22 34
- 26.691387 2 4 tcp 1040 ------- 0 0.0 4.0 22 34
r 26.70416 2 4 tcp 1040 ------- 0 0.0 4.0 22 34
+ 26.70416 4 2 ack 40 ------- 0 4.0 0.0 22 63
- 26.70416 4 2 ack 40 ------- 0 4.0 0.0 22 63
r 26.714267 4 2 ack 40 ------- 0 4.0 0.0 22 63
+ 26.714267 2 1 ack 40 ------- 0 4.0 0.0 22 63
- 26.714267 2 1 ack 40 ------- 0 4.0 0.0 22 63
r 26.914267 1 3 ack 40 ------- 0 4.0 0.0 21 61
+ 26.914267 3 0 ack 40 ------- 0 4.0 0.0 21 61
- 26.914267 3 0 ack 40 ------- 0 4.0 0.0 21 61
r 26.964373 3 0 ack 40 ------- 0 4.0 0.0 21 61
+ 26.964373 0 3 tcp 1040 ------- 0 0.0 4.0 41 64
- 26.964373 0 3 tcp 1040 ------- 0 0.0 4.0 41 64
r 27.017147 0 3 tcp 1040 ------- 0 0.0 4.0 41 64
+ 27.017147 3 1 tcp 1040 ------- 0 0.0 4.0 41 64
r 27.058053 3 1 tcp 1040 ------- 0 0.0 4.0 24 37
+ 27.058053 1 2 tcp 1040 ------- 0 0.0 4.0 24 37
- 27.058053 1 2 tcp 1040 ------- 0 0.0 4.0 24 37
r 27.2476 2 1 ack 40 ------- 0 4.0 0.0 22 63
+ 27.2476 1 3 ack 40 ------- 0 4.0 0.0 22 63
- 27.2476 1 3 ack 40 ------- 0 4.0 0.0 22 63
- 27.42472 3 1 tcp 1040 ------- 0 0.0 4.0 26 40
r 27.558053 1 2 tcp 1040 ------- 0 0.0 4.0 23 36
+ 27.558053 2 4 tcp 1040 ------- 0 0.0 4.0 23 36
- 27.558053 2 4 tcp 1040 ------- 0 0.0 4.0 23 36
r 27.570827 2 4 tcp 1040 ------- 0 0.0 4.0 23 36
+ 27.570827 4 2 ack 40 ------- 0 4.0 0.0 23 65