+ 0.8 4 3 tcp 40 ------- 0 4.0 1.0 0 0
- 0.8 4 3 tcp 40 ------- 0 4.0 1.0 0 0
r 0.850107 4 3 tcp 40 ------- 0 4.0 1.0 0 0
+ 0.850107 3 2 tcp 40 ------- 0 4.0 1.0 0 0
- 0.850107 3 2 tcp 40 ------- 0 4.0 1.0 0 0
r 1.38344 3 2 tcp 40 ------- 0 4.0 1.0 0 0
+ 1.38344 2 0 tcp 40 ------- 0 4.0 1.0 0 0
- 1.38344 2 0 tcp 40 ------- 0 4.0 1.0 0 0
r 1.916773 2 0 tcp 40 ------- 0 4.0 1.0 0 0
+ 1.916773 0 1 tcp 40 ------- 0 4.0 1.0 0 0
- 1.916773 0 1 tcp 40 ------- 0 4.0 1.0 0 0
r 1.92688 0 1 tcp 40 ------- 0 4.0 1.0 0 0
+ 1.92688 1 0 ack 40 ------- 0 1.0 4.0 0 1
- 1.92688 1 0 ack 40 ------- 0 1.0 4.0 0 1
r 1.936987 1 0 ack 40 ------- 0 1.0 4.0 0 1
+ 1.936987 0 2 ack 40 ------- 0 1.0 4.0 0 1
- 1.936987 0 2 ack 40 ------- 0 1.0 4.0 0 1
r 2.47032 0 2 ack 40 ------- 0 1.0 4.0 0 1
+ 2.47032 2 3 ack 40 ------- 0 1.0 4.0 0 1
- 2.47032 2 3 ack 40 ------- 0 1.0 4.0 0 1
r 3.003653 2 3 ack 40 ------- 0 1.0 4.0 0 1
+ 3.003653 3 4 ack 40 ------- 0 1.0 4.0 0 1
- 3.003653 3 4 ack 40 ------- 0 1.0 4.0 0 1
r 3.05376 3 4 ack 40 ------- 0 1.0 4.0 0 1
+ 3.05376 4 3 tcp 1040 ------- 0 4.0 1.0 1 2
- 3.05376 4 3 tcp 1040 ------- 0 4.0 1.0 1 2
+ 3.05376 4 3 tcp 1040 ------- 0 4.0 1.0 2 3
- 3.056533 4 3 tcp 1040 ------- 0 4.0 1.0 2 3
r 3.106533 4 3 tcp 1040 ------- 0 4.0 1.0 1 2
+ 3.106533 3 2 tcp 1040 ------- 0 4.0 1.0 1 2
- 3.106533 3 2 tcp 1040 ------- 0 4.0 1.0 1 2
r 3.109307 4 3 tcp 1040 ------- 0 4.0 1.0 2 3
+ 3.109307 3 2 tcp 1040 ------- 0 4.0 1.0 2 3
- 3.9732 3 2 tcp 1040 ------- 0 4.0 1.0 2 3
r 4.4732 3 2 tcp 1040 ------- 0 4.0 1.0 1 2
+ 4.4732 2 0 tcp 1040 ------- 0 4.0 1.0 1 2
- 4.4732 2 0 tcp 1040 ------- 0 4.0 1.0 1 2
r 5.339867 3 2 tcp 1040 ------- 0 4.0 1.0 2 3
+ 5.339867 2 0 tcp 1040 ------- 0 4.0 1.0 2 3
- 5.339867 2 0 tcp 1040 ------- 0 4.0 1.0 2 3
r 5.839867 2 0 tcp 1040 ------- 0 4.0 1.0 1 2
+ 5.839867 0 1 tcp 1040 ------- 0 4.0 1.0 1 2
- 5.839867 0 1 tcp 1040 ------- 0 4.0 1.0 1 2
r 5.85264 0 1 tcp 1040 ------- 0 4.0 1.0 1 2
+ 5.85264 1 0 ack 40 ------- 0 1.0 4.0 1 4
- 5.85264 1 0 ack 40 ------- 0 1.0 4.0 1 4
r 5.862747 1 0 ack 40 ------- 0 1.0 4.0 1 4
+ 5.862747 0 2 ack 40 ------- 0 1.0 4.0 1 4
- 5.862747 0 2 ack 40 ------- 0 1.0 4.0 1 4
r 6.39608 0 2 ack 40 ------- 0 1.0 4.0 1 4
+ 6.39608 2 3 ack 40 ------- 0 1.0 4.0 1 4
- 6.39608 2 3 ack 40 ------- 0 1.0 4.0 1 4
r 6.706533 2 0 tcp 1040 ------- 0 4.0 1.0 2 3
+ 6.706533 0 1 tcp 1040 ------- 0 4.0 1.0 2 3
- 6.706533 0 1 tcp 1040 ------- 0 4.0 1.0 2 3
r 6.719307 0 1 tcp 1040 ------- 0 4.0 1.0 2 3
+ 6.719307 1 0 ack 40 ------- 0 1.0 4.0 2 5
- 6.719307 1 0 ack 40 ------- 0 1.0 4.0 2 5
r 6.729413 1 0 ack 40 ------- 0 1.0 4.0 2 5
+ 6.729413 0 2 ack 40 ------- 0 1.0 4.0 2 5
- 6.729413 0 2 ack 40 ------- 0 1.0 4.0 2 5
r 6.929413 2 3 ack 40 ------- 0 1.0 4.0 1 4
+ 6.929413 3 4 ack 40 ------- 0 1.0 4.0 1 4
- 6.929413 3 4 ack 40 ------- 0 1.0 4.0 1 4
r 6.97952 3 4 ack 40 ------- 0 1.0 4.0 1 4
+ 6.97952 4 3 tcp 1040 ------- 0 4.0 1.0 3 6
- 6.97952 4 3 tcp 1040 ------- 0 4.0 1.0 3 6
+ 6.97952 4 3 tcp 1040 ------- 0 4.0 1.0 4 7
- 6.982293 4 3 tcp 1040 ------- 0 4.0 1.0 4 7
r 7.032293 4 3 tcp 1040 ------- 0 4.0 1.0 3 6
+ 7.032293 3 2 tcp 1040 ------- 0 4.0 1.0 3 6
- 7.032293 3 2 tcp 1040 ------- 0 4.0 1.0 3 6
r 7.035067 4 3 tcp 1040 ------- 0 4.0 1.0 4 7
+ 7.035067 3 2 tcp 1040 ------- 0 4.0 1.0 4 7
r 7.262747 0 2 ack 40 ------- 0 1.0 4.0 2 5
+ 7.262747 2 3 ack 40 ------- 0 1.0 4.0 2 5
- 7.262747 2 3 ack 40 ------- 0 1.0 4.0 2 5
r 7.79608 2 3 ack 40 ------- 0 1.0 4.0 2 5
+ 7.79608 3 4 ack 40 ------- 0 1.0 4.0 2 5
- 7.79608 3 4 ack 40 ------- 0 1.0 4.0 2 5
r 7.846187 3 4 ack 40 ------- 0 1.0 4.0 2 5
+ 7.846187 4 3 tcp 1040 ------- 0 4.0 1.0 5 8
- 7.846187 4 3 tcp 1040 ------- 0 4.0 1.0 5 8
+ 7.846187 4 3 tcp 1040 ------- 0 4.0 1.0 6 9
- 7.84896 4 3 tcp 1040 ------- 0 4.0 1.0 6 9
- 7.89896 3 2 tcp 1040 ------- 0 4.0 1.0 4 7
r 7.89896 4 3 tcp 1040 ------- 0 4.0 1.0 5 8
+ 7.89896 3 2 tcp 1040 ------- 0 4.0 1.0 5 8
r 7.901733 4 3 tcp 1040 ------- 0 4.0 1.0 6 9
+ 7.901733 3 2 tcp 1040 ------- 0 4.0 1.0 6 9
r 8.39896 3 2 tcp 1040 ------- 0 4.0 1.0 3 6
+ 8.39896 2 0 tcp 1040 ------- 0 4.0 1.0 3 6
- 8.39896 2 0 tcp 1040 ------- 0 4.0 1.0 3 6
- 8.765627 3 2 tcp 1040 ------- 0 4.0 1.0 5 8
r 9.265627 3 2 tcp 1040 ------- 0 4.0 1.0 4 7
+ 9.265627 2 0 tcp 1040 ------- 0 4.0 1.0 4 7
- 9.265627 2 0 tcp 1040 ------- 0 4.0 1.0 4 7
- 9.632293 3 2 tcp 1040 ------- 0 4.0 1.0 6 9
r 9.765627 2 0 tcp 1040 ------- 0 4.0 1.0 3 6
+ 9.765627 0 1 tcp 1040 ------- 0 4.0 1.0 3 6
- 9.765627 0 1 tcp 1040 ------- 0 4.0 1.0 3 6
r 9.7784 0 1 tcp 1040 ------- 0 4.0 1.0 3 6
+ 9.7784 1 0 ack 40 ------- 0 1.0 4.0 3 10
- 9.7784 1 0 ack 40 ------- 0 1.0 4.0 3 10
r 9.788507 1 0 ack 40 ------- 0 1.0 4.0 3 10
+ 9.788507 0 2 ack 40 ------- 0 1.0 4.0 3 10
- 9.788507 0 2 ack 40 ------- 0 1.0 4.0 3 10
r 10.132293 3 2 tcp 1040 ------- 0 4.0 1.0 5 8
+ 10.132293 2 0 tcp 1040 ------- 0 4.0 1.0 5 8
- 10.132293 2 0 tcp 1040 ------- 0 4.0 1.0 5 8
r 10.32184 0 2 ack 40 ------- 0 1.0 4.0 3 10
+ 10.32184 2 3 ack 40 ------- 0 1.0 4.0 3 10
- 10.32184 2 3 ack 40 ------- 0 1.0 4.0 3 10
r 10.632293 2 0 tcp 1040 ------- 0 4.0 1.0 4 7
+ 10.632293 0 1 tcp 1040 ------- 0 4.0 1.0 4 7
- 10.632293 0 1 tcp 1040 ------- 0 4.0 1.0 4 7
r 10.645067 0 1 tcp 1040 ------- 0 4.0 1.0 4 7
+ 10.645067 1 0 ack 40 ------- 0 1.0 4.0 4 11
- 10.645067 1 0 ack 40 ------- 0 1.0 4.0 4 11
r 10.655173 1 0 ack 40 ------- 0 1.0 4.0 4 11
+ 10.655173 0 2 ack 40 ------- 0 1.0 4.0 4 11
- 10.655173 0 2 ack 40 ------- 0 1.0 4.0 4 11
r 10.855173 2 3 ack 40 ------- 0 1.0 4.0 3 10
+ 10.855173 3 4 ack 40 ------- 0 1.0 4.0 3 10
- 10.855173 3 4 ack 40 ------- 0 1.0 4.0 3 10
r 10.90528 3 4 ack 40 ------- 0 1.0 4.0 3 10
+ 10.90528 4 3 tcp 1040 ------- 0 4.0 1.0 7 12
- 10.90528 4 3 tcp 1040 ------- 0 4.0 1.0 7 12
+ 10.90528 4 3 tcp 1040 ------- 0 4.0 1.0 8 13
- 10.908053 4 3 tcp 1040 ------- 0 4.0 1.0 8 13
r 10.958053 4 3 tcp 1040 ------- 0 4.0 1.0 7 12
+ 10.958053 3 2 tcp 1040 ------- 0 4.0 1.0 7 12
- 10.958053 3 2 tcp 1040 ------- 0 4.0 1.0 7 12
r 10.960827 4 3 tcp 1040 ------- 0 4.0 1.0 8 13
+ 10.960827 3 2 tcp 1040 ------- 0 4.0 1.0 8 13
r 10.99896 3 2 tcp 1040 ------- 0 4.0 1.0 6 9
+ 10.99896 2 0 tcp 1040 ------- 0 4.0 1.0 6 9
- 10.99896 2 0 tcp 1040 ------- 0 4.0 1.0 6 9
r 11.188507 0 2 ack 40 ------- 0 1.0 4.0 4 11
+ 11.188507 2 3 ack 40 ------- 0 1.0 4.0 4 11
- 11.188507 2 3 ack 40 ------- 0 1.0 4.0 4 11
r 11.49896 2 0 tcp 1040 ------- 0 4.0 1.0 5 8
+ 11.49896 0 1 tcp 1040 ------- 0 4.0 1.0 5 8
- 11.49896 0 1 tcp 1040 ------- 0 4.0 1.0 5 8
r 11.511733 0 1 tcp 1040 ------- 0 4.0 1.0 5 8
+ 11.511733 1 0 ack 40 ------- 0 1.0 4.0 5 14
- 11.511733 1 0 ack 40 ------- 0 1.0 4.0 5 14
r 11.52184 1 0 ack 40 ------- 0 1.0 4.0 5 14
+ 11.52184 0 2 ack 40 ------- 0 1.0 4.0 5 14
- 11.52184 0 2 ack 40 ------- 0 1.0 4.0 5 14
r 11.72184 2 3 ack 40 ------- 0 1.0 4.0 4 11
+ 11.72184 3 4 ack 40 ------- 0 1.0 4.0 4 11
- 11.72184 3 4 ack 40 ------- 0 1.0 4.0 4 11
r 11.771947 3 4 ack 40 ------- 0 1.0 4.0 4 11
+ 11.771947 4 3 tcp 1040 ------- 0 4.0 1.0 9 15
- 11.771947 4 3 tcp 1040 ------- 0 4.0 1.0 9 15
+ 11.771947 4 3 tcp 1040 ------- 0 4.0 1.0 10 16
- 11.77472 4 3 tcp 1040 ------- 0 4.0 1.0 10 16
- 11.82472 3 2 tcp 1040 ------- 0 4.0 1.0 8 13
r 11.82472 4 3 tcp 1040 ------- 0 4.0 1.0 9 15
+ 11.82472 3 2 tcp 1040 ------- 0 4.0 1.0 9 15
r 11.827493 4 3 tcp 1040 ------- 0 4.0 1.0 10 16
+ 11.827493 3 2 tcp 1040 ------- 0 4.0 1.0 10 16
r 12.055173 0 2 ack 40 ------- 0 1.0 4.0 5 14
+ 12.055173 2 3 ack 40 ------- 0 1.0 4.0 5 14
- 12.055173 2 3 ack 40 ------- 0 1.0 4.0 5 14
r 12.32472 3 2 tcp 1040 ------- 0 4.0 1.0 7 12
+ 12.32472 2 0 tcp 1040 ------- 0 4.0 1.0 7 12
- 12.32472 2 0 tcp 1040 ------- 0 4.0 1.0 7 12
r 12.365627 2 0 tcp 1040 ------- 0 4.0 1.0 6 9
+ 12.365627 0 1 tcp 1040 ------- 0 4.0 1.0 6 9
- 12.365627 0 1 tcp 1040 ------- 0 4.0 1.0 6 9
r 12.3784 0 1 tcp 1040 ------- 0 4.0 1.0 6 9
+ 12.3784 1 0 ack 40 ------- 0 1.0 4.0 6 17
- 12.3784 1 0 ack 40 ------- 0 1.0 4.0 6 17
r 12.388507 1 0 ack 40 ------- 0 1.0 4.0 6 17
+ 12.388507 0 2 ack 40 ------- 0 1.0 4.0 6 17
- 12.388507 0 2 ack 40 ------- 0 1.0 4.0 6 17
r 12.588507 2 3 ack 40 ------- 0 1.0 4.0 5 14
+ 12.588507 3 4 ack 40 ------- 0 1.0 4.0 5 14
- 12.588507 3 4 ack 40 ------- 0 1.0 4.0 5 14
r 12.638613 3 4 ack 40 ------- 0 1.0 4.0 5 14
+ 12.638613 4 3 tcp 1040 ------- 0 4.0 1.0 11 18
- 12.638613 4 3 tcp 1040 ------- 0 4.0 1.0 11 18
+ 12.638613 4 3 tcp 1040 ------- 0 4.0 1.0 12 19
- 12.641387 4 3 tcp 1040 ------- 0 4.0 1.0 12 19
- 12.691387 3 2 tcp 1040 ------- 0 4.0 1.0 9 15
r 12.691387 4 3 tcp 1040 ------- 0 4.0 1.0 11 18
+ 12.691387 3 2 tcp 1040 ------- 0 4.0 1.0 11 18
r 12.69416 4 3 tcp 1040 ------- 0 4.0 1.0 12 19
+ 12.69416 3 2 tcp 1040 ------- 0 4.0 1.0 12 19
r 12.92184 0 2 ack 40 ------- 0 1.0 4.0 6 17
+ 12.92184 2 3 ack 40 ------- 0 1.0 4.0 6 17
- 12.92184 2 3 ack 40 ------- 0 1.0 4.0 6 17
r 13.191387 3 2 tcp 1040 ------- 0 4.0 1.0 8 13
+ 13.191387 2 0 tcp 1040 ------- 0 4.0 1.0 8 13
- 13.191387 2 0 tcp 1040 ------- 0 4.0 1.0 8 13
r 13.455173 2 3 ack 40 ------- 0 1.0 4.0 6 17
+ 13.455173 3 4 ack 40 ------- 0 1.0 4.0 6 17
- 13.455173 3 4 ack 40 ------- 0 1.0 4.0 6 17
r 13.50528 3 4 ack 40 ------- 0 1.0 4.0 6 17
+ 13.50528 4 3 tcp 1040 ------- 0 4.0 1.0 13 20
- 13.50528 4 3 tcp 1040 ------- 0 4.0 1.0 13 20
+ 13.50528 4 3 tcp 1040 ------- 0 4.0 1.0 14 21
- 13.508053 4 3 tcp 1040 ------- 0 4.0 1.0 14 21
- 13.558053 3 2 tcp 1040 ------- 0 4.0 1.0 10 16
r 13.558053 4 3 tcp 1040 ------- 0 4.0 1.0 13 20
+ 13.558053 3 2 tcp 1040 ------- 0 4.0 1.0 13 20
r 13.560827 4 3 tcp 1040 ------- 0 4.0 1.0 14 21
+ 13.560827 3 2 tcp 1040 ------- 0 4.0 1.0 14 21
r 13.691387 2 0 tcp 1040 ------- 0 4.0 1.0 7 12
+ 13.691387 0 1 tcp 1040 ------- 0 4.0 1.0 7 12
- 13.691387 0 1 tcp 1040 ------- 0 4.0 1.0 7 12
r 13.70416 0 1 tcp 1040 ------- 0 4.0 1.0 7 12
+ 13.70416 1 0 ack 40 ------- 0 1.0 4.0 7 22
- 13.70416 1 0 ack 40 ------- 0 1.0 4.0 7 22
r 13.714267 1 0 ack 40 ------- 0 1.0 4.0 7 22
+ 13.714267 0 2 ack 40 ------- 0 1.0 4.0 7 22
- 13.714267 0 2 ack 40 ------- 0 1.0 4.0 7 22
r 14.058053 3 2 tcp 1040 ------- 0 4.0 1.0 9 15
+ 14.058053 2 0 tcp 1040 ------- 0 4.0 1.0 9 15
- 14.058053 2 0 tcp 1040 ------- 0 4.0 1.0 9 15
r 14.2476 0 2 ack 40 ------- 0 1.0 4.0 7 22
+ 14.2476 2 3 ack 40 ------- 0 1.0 4.0 7 22
- 14.2476 2 3 ack 40 ------- 0 1.0 4.0 7 22
- 14.42472 3 2 tcp 1040 ------- 0 4.0 1.0 11 18
r 14.558053 2 0 tcp 1040 ------- 0 4.0 1.0 8 13
+ 14.558053 0 1 tcp 1040 ------- 0 4.0 1.0 8 13
- 14.558053 0 1 tcp 1040 ------- 0 4.0 1.0 8 13
r 14.570827 0 1 tcp 1040 ------- 0 4.0 1.0 8 13
+ 14.570827 1 0 ack 40 ------- 0 1.0 4.0 8 23
- 14.570827 1 0 ack 40 ------- 0 1.0 4.0 8 23
r 14.580933 1 0 ack 40 ------- 0 1.0 4.0 8 23
+ 14.580933 0 2 ack 40 ------- 0 1.0 4.0 8 23
- 14.580933 0 2 ack 40 ------- 0 1.0 4.0 8 23
r 14.780933 2 3 ack 40 ------- 0 1.0 4.0 7 22
+ 14.780933 3 4 ack 40 ------- 0 1.0 4.0 7 22
- 14.780933 3 4 ack 40 ------- 0 1.0 4.0 7 22
r 14.83104 3 4 ack 40 ------- 0 1.0 4.0 7 22
+ 14.83104 4 3 tcp 1040 ------- 0 4.0 1.0 15 24
- 14.83104 4 3 tcp 1040 ------- 0 4.0 1.0 15 24
+ 14.83104 4 3 tcp 1040 ------- 0 4.0 1.0 16 25
- 14.833813 4 3 tcp 1040 ------- 0 4.0 1.0 16 25
r 14.883813 4 3 tcp 1040 ------- 0 4.0 1.0 15 24
+ 14.883813 3 2 tcp 1040 ------- 0 4.0 1.0 15 24
r 14.886587 4 3 tcp 1040 ------- 0 4.0 1.0 16 25
+ 14.886587 3 2 tcp 1040 ------- 0 4.0 1.0 16 25
r 14.92472 3 2 tcp 1040 ------- 0 4.0 1.0 10 16
+ 14.92472 2 0 tcp 1040 ------- 0 4.0 1.0 10 16
- 14.92472 2 0 tcp 1040 ------- 0 4.0 1.0 10 16
r 15.114267 0 2 ack 40 ------- 0 1.0 4.0 8 23
+ 15.114267 2 3 ack 40 ------- 0 1.0 4.0 8 23
- 15.114267 2 3 ack 40 ------- 0 1.0 4.0 8 23
- 15.291387 3 2 tcp 1040 ------- 0 4.0 1.0 12 19
r 15.42472 2 0 tcp 1040 ------- 0 4.0 1.0 9 15
+ 15.42472 0 1 tcp 1040 ------- 0 4.0 1.0 9 15
- 15.42472 0 1 tcp 1040 ------- 0 4.0 1.0 9 15
r 15.437493 0 1 tcp 1040 ------- 0 4.0 1.0 9 15
+ 15.437493 1 0 ack 40 ------- 0 1.0 4.0 9 26
- 15.437493 1 0 ack 40 ------- 0 1.0 4.0 9 26
r 15.4476 1 0 ack 40 ------- 0 1.0 4.0 9 26
+ 15.4476 0 2 ack 40 ------- 0 1.0 4.0 9 26
- 15.4476 0 2 ack 40 ------- 0 1.0 4.0 9 26
r 15.6476 2 3 ack 40 ------- 0 1.0 4.0 8 23
+ 15.6476 3 4 ack 40 ------- 0 1.0 4.0 8 23
- 15.6476 3 4 ack 40 ------- 0 1.0 4.0 8 23
r 15.697707 3 4 ack 40 ------- 0 1.0 4.0 8 23
+ 15.697707 4 3 tcp 1040 ------- 0 4.0 1.0 17 27
- 15.697707 4 3 tcp 1040 ------- 0 4.0 1.0 17 27
+ 15.697707 4 3 tcp 1040 ------- 0 4.0 1.0 18 28
- 15.70048 4 3 tcp 1040 ------- 0 4.0 1.0 18 28
r 15.75048 4 3 tcp 1040 ------- 0 4.0 1.0 17 27
+ 15.75048 3 2 tcp 1040 ------- 0 4.0 1.0 17 27
r 15.753253 4 3 tcp 1040 ------- 0 4.0 1.0 18 28
+ 15.753253 3 2 tcp 1040 ------- 0 4.0 1.0 18 28
d 15.753253 3 2 tcp 1040 ------- 0 4.0 1.0 18 28
r 15.791387 3 2 tcp 1040 ------- 0 4.0 1.0 11 18
+ 15.791387 2 0 tcp 1040 ------- 0 4.0 1.0 11 18
- 15.791387 2 0 tcp 1040 ------- 0 4.0 1.0 11 18
r 15.980933 0 2 ack 40 ------- 0 1.0 4.0 9 26
+ 15.980933 2 3 ack 40 ------- 0 1.0 4.0 9 26
- 15.980933 2 3 ack 40 ------- 0 1.0 4.0 9 26
- 16.158053 3 2 tcp 1040 ------- 0 4.0 1.0 13 20
r 16.291387 2 0 tcp 1040 ------- 0 4.0 1.0 10 16
+ 16.291387 0 1 tcp 1040 ------- 0 4.0 1.0 10 16
- 16.291387 0 1 tcp 1040 ------- 0 4.0 1.0 10 16
r 16.30416 0 1 tcp 1040 ------- 0 4.0 1.0 10 16
+ 16.30416 1 0 ack 40 ------- 0 1.0 4.0 10 29
- 16.30416 1 0 ack 40 ------- 0 1.0 4.0 10 29
r 16.314267 1 0 ack 40 ------- 0 1.0 4.0 10 29
+ 16.314267 0 2 ack 40 ------- 0 1.0 4.0 10 29
- 16.314267 0 2 ack 40 ------- 0 1.0 4.0 10 29
r 16.514267 2 3 ack 40 ------- 0 1.0 4.0 9 26
+ 16.514267 3 4 ack 40 ------- 0 1.0 4.0 9 26
- 16.514267 3 4 ack 40 ------- 0 1.0 4.0 9 26
r 16.564373 3 4 ack 40 ------- 0 1.0 4.0 9 26
+ 16.564373 4 3 tcp 1040 ------- 0 4.0 1.0 19 30
- 16.564373 4 3 tcp 1040 ------- 0 4.0 1.0 19 30
+ 16.564373 4 3 tcp 1040 ------- 0 4.0 1.0 20 31
- 16.567147 4 3 tcp 1040 ------- 0 4.0 1.0 20 31
r 16.617147 4 3 tcp 1040 ------- 0 4.0 1.0 19 30
+ 16.617147 3 2 tcp 1040 ------- 0 4.0 1.0 19 30
r 16.61992 4 3 tcp 1040 ------- 0 4.0 1.0 20 31
+ 16.61992 3 2 tcp 1040 ------- 0 4.0 1.0 20 31
d 16.61992 3 2 tcp 1040 ------- 0 4.0 1.0 20 31
r 16.658053 3 2 tcp 1040 ------- 0 4.0 1.0 12 19
+ 16.658053 2 0 tcp 1040 ------- 0 4.0 1.0 12 19
- 16.658053 2 0 tcp 1040 ------- 0 4.0 1.0 12 19
r 16.8476 0 2 ack 40 ------- 0 1.0 4.0 10 29
+ 16.8476 2 3 ack 40 ------- 0 1.0 4.0 10 29
- 16.8476 2 3 ack 40 ------- 0 1.0 4.0 10 29
- 17.02472 3 2 tcp 1040 ------- 0 4.0 1.0 14 21
r 17.158053 2 0 tcp 1040 ------- 0 4.0 1.0 11 18
+ 17.158053 0 1 tcp 1040 ------- 0 4.0 1.0 11 18
- 17.158053 0 1 tcp 1040 ------- 0 4.0 1.0 11 18
r 17.170827 0 1 tcp 1040 ------- 0 4.0 1.0 11 18
+ 17.170827 1 0 ack 40 ------- 0 1.0 4.0 11 32
- 17.170827 1 0 ack 40 ------- 0 1.0 4.0 11 32
r 17.180933 1 0 ack 40 ------- 0 1.0 4.0 11 32
+ 17.180933 0 2 ack 40 ------- 0 1.0 4.0 11 32
- 17.180933 0 2 ack 40 ------- 0 1.0 4.0 11 32
r 17.380933 2 3 ack 40 ------- 0 1.0 4.0 10 29
+ 17.380933 3 4 ack 40 ------- 0 1.0 4.0 10 29
- 17.380933 3 4 ack 40 ------- 0 1.0 4.0 10 29
r 17.43104 3 4 ack 40 ------- 0 1.0 4.0 10 29
+ 17.43104 4 3 tcp 1040 ------- 0 4.0 1.0 21 33
- 17.43104 4 3 tcp 1040 ------- 0 4.0 1.0 21 33
+ 17.43104 4 3 tcp 1040 ------- 0 4.0 1.0 22 34
- 17.433813 4 3 tcp 1040 ------- 0 4.0 1.0 22 34
r 17.483813 4 3 tcp 1040 ------- 0 4.0 1.0 21 33
+ 17.483813 3 2 tcp 1040 ------- 0 4.0 1.0 21 33
r 17.486587 4 3 tcp 1040 ------- 0 4.0 1.0 22 34
+ 17.486587 3 2 tcp 1040 ------- 0 4.0 1.0 22 34
d 17.486587 3 2 tcp 1040 ------- 0 4.0 1.0 22 34
r 17.52472 3 2 tcp 1040 ------- 0 4.0 1.0 13 20
+ 17.52472 2 0 tcp 1040 ------- 0 4.0 1.0 13 20
- 17.52472 2 0 tcp 1040 ------- 0 4.0 1.0 13 20
r 17.714267 0 2 ack 40 ------- 0 1.0 4.0 11 32
+ 17.714267 2 3 ack 40 ------- 0 1.0 4.0 11 32
- 17.714267 2 3 ack 40 ------- 0 1.0 4.0 11 32
- 17.891387 3 2 tcp 1040 ------- 0 4.0 1.0 15 24
r 18.02472 2 0 tcp 1040 ------- 0 4.0 1.0 12 19
+ 18.02472 0 1 tcp 1040 ------- 0 4.0 1.0 12 19
- 18.02472 0 1 tcp 1040 ------- 0 4.0 1.0 12 19
r 18.037493 0 1 tcp 1040 ------- 0 4.0 1.0 12 19
+ 18.037493 1 0 ack 40 ------- 0 1.0 4.0 12 35
- 18.037493 1 0 ack 40 ------- 0 1.0 4.0 12 35
r 18.0476 1 0 ack 40 ------- 0 1.0 4.0 12 35
+ 18.0476 0 2 ack 40 ------- 0 1.0 4.0 12 35
- 18.0476 0 2 ack 40 ------- 0 1.0 4.0 12 35
r 18.2476 2 3 ack 40 ------- 0 1.0 4.0 11 32
+ 18.2476 3 4 ack 40 ------- 0 1.0 4.0 11 32
- 18.2476 3 4 ack 40 ------- 0 1.0 4.0 11 32
r 18.297707 3 4 ack 40 ------- 0 1.0 4.0 11 32
+ 18.297707 4 3 tcp 1040 ------- 0 4.0 1.0 23 36
- 18.297707 4 3 tcp 1040 ------- 0 4.0 1.0 23 36
+ 18.297707 4 3 tcp 1040 ------- 0 4.0 1.0 24 37
- 18.30048 4 3 tcp 1040 ------- 0 4.0 1.0 24 37
r 18.35048 4 3 tcp 1040 ------- 0 4.0 1.0 23 36
+ 18.35048 3 2 tcp 1040 ------- 0 4.0 1.0 23 36
r 18.353253 4 3 tcp 1040 ------- 0 4.0 1.0 24 37
+ 18.353253 3 2 tcp 1040 ------- 0 4.0 1.0 24 37
d 18.353253 3 2 tcp 1040 ------- 0 4.0 1.0 24 37
r 18.391387 3 2 tcp 1040 ------- 0 4.0 1.0 14 21
+ 18.391387 2 0 tcp 1040 ------- 0 4.0 1.0 14 21
- 18.391387 2 0 tcp 1040 ------- 0 4.0 1.0 14 21
r 18.580933 0 2 ack 40 ------- 0 1.0 4.0 12 35
+ 18.580933 2 3 ack 40 ------- 0 1.0 4.0 12 35
- 18.580933 2 3 ack 40 ------- 0 1.0 4.0 12 35
- 18.758053 3 2 tcp 1040 ------- 0 4.0 1.0 16 25
r 18.891387 2 0 tcp 1040 ------- 0 4.0 1.0 13 20
+ 18.891387 0 1 tcp 1040 ------- 0 4.0 1.0 13 20
- 18.891387 0 1 tcp 1040 ------- 0 4.0 1.0 13 20
r 18.90416 0 1 tcp 1040 ------- 0 4.0 1.0 13 20
+ 18.90416 1 0 ack 40 ------- 0 1.0 4.0 13 38
- 18.90416 1 0 ack 40 ------- 0 1.0 4.0 13 38
r 18.914267 1 0 ack 40 ------- 0 1.0 4.0 13 38
+ 18.914267 0 2 ack 40 ------- 0 1.0 4.0 13 38
- 18.914267 0 2 ack 40 ------- 0 1.0 4.0 13 38
r 19.114267 2 3 ack 40 ------- 0 1.0 4.0 12 35
+ 19.114267 3 4 ack 40 ------- 0 1.0 4.0 12 35
- 19.114267 3 4 ack 40 ------- 0 1.0 4.0 12 35
r 19.164373 3 4 ack 40 ------- 0 1.0 4.0 12 35
+ 19.164373 4 3 tcp 1040 ------- 0 4.0 1.0 25 39
- 19.164373 4 3 tcp 1040 ------- 0 4.0 1.0 25 39
+ 19.164373 4 3 tcp 1040 ------- 0 4.0 1.0 26 40
- 19.167147 4 3 tcp 1040 ------- 0 4.0 1.0 26 40
r 19.217147 4 3 tcp 1040 ------- 0 4.0 1.0 25 39
+ 19.217147 3 2 tcp 1040 ------- 0 4.0 1.0 25 39
r 19.21992 4 3 tcp 1040 ------- 0 4.0 1.0 26 40
+ 19.21992 3 2 tcp 1040 ------- 0 4.0 1.0 26 40
d 19.21992 3 2 tcp 1040 ------- 0 4.0 1.0 26 40
r 19.258053 3 2 tcp 1040 ------- 0 4.0 1.0 15 24
+ 19.258053 2 0 tcp 1040 ------- 0 4.0 1.0 15 24
- 19.258053 2 0 tcp 1040 ------- 0 4.0 1.0 15 24
r 19.4476 0 2 ack 40 ------- 0 1.0 4.0 13 38
+ 19.4476 2 3 ack 40 ------- 0 1.0 4.0 13 38
- 19.4476 2 3 ack 40 ------- 0 1.0 4.0 13 38
- 19.62472 3 2 tcp 1040 ------- 0 4.0 1.0 17 27
r 19.758053 2 0 tcp 1040 ------- 0 4.0 1.0 14 21
+ 19.758053 0 1 tcp 1040 ------- 0 4.0 1.0 14 21
- 19.758053 0 1 tcp 1040 ------- 0 4.0 1.0 14 21
r 19.770827 0 1 tcp 1040 ------- 0 4.0 1.0 14 21
+ 19.770827 1 0 ack 40 ------- 0 1.0 4.0 14 41
- 19.770827 1 0 ack 40 ------- 0 1.0 4.0 14 41
r 19.780933 1 0 ack 40 ------- 0 1.0 4.0 14 41
+ 19.780933 0 2 ack 40 ------- 0 1.0 4.0 14 41
- 19.780933 0 2 ack 40 ------- 0 1.0 4.0 14 41
r 19.980933 2 3 ack 40 ------- 0 1.0 4.0 13 38
+ 19.980933 3 4 ack 40 ------- 0 1.0 4.0 13 38
- 19.980933 3 4 ack 40 ------- 0 1.0 4.0 13 38
r 20.03104 3 4 ack 40 ------- 0 1.0 4.0 13 38
+ 20.03104 4 3 tcp 1040 ------- 0 4.0 1.0 27 42
- 20.03104 4 3 tcp 1040 ------- 0 4.0 1.0 27 42
+ 20.03104 4 3 tcp 1040 ------- 0 4.0 1.0 28 43
- 20.033813 4 3 tcp 1040 ------- 0 4.0 1.0 28 43
r 20.083813 4 3 tcp 1040 ------- 0 4.0 1.0 27 42
+ 20.083813 3 2 tcp 1040 ------- 0 4.0 1.0 27 42
r 20.086587 4 3 tcp 1040 ------- 0 4.0 1.0 28 43
+ 20.086587 3 2 tcp 1040 ------- 0 4.0 1.0 28 43
d 20.086587 3 2 tcp 1040 ------- 0 4.0 1.0 28 43
r 20.12472 3 2 tcp 1040 ------- 0 4.0 1.0 16 25
+ 20.12472 2 0 tcp 1040 ------- 0 4.0 1.0 16 25
- 20.12472 2 0 tcp 1040 ------- 0 4.0 1.0 16 25
r 20.314267 0 2 ack 40 ------- 0 1.0 4.0 14 41
+ 20.314267 2 3 ack 40 ------- 0 1.0 4.0 14 41
- 20.314267 2 3 ack 40 ------- 0 1.0 4.0 14 41
- 20.491387 3 2 tcp 1040 ------- 0 4.0 1.0 19 30
r 20.62472 2 0 tcp 1040 ------- 0 4.0 1.0 15 24
+ 20.62472 0 1 tcp 1040 ------- 0 4.0 1.0 15 24
- 20.62472 0 1 tcp 1040 ------- 0 4.0 1.0 15 24
r 20.637493 0 1 tcp 1040 ------- 0 4.0 1.0 15 24
+ 20.637493 1 0 ack 40 ------- 0 1.0 4.0 15 44
- 20.637493 1 0 ack 40 ------- 0 1.0 4.0 15 44
r 20.6476 1 0 ack 40 ------- 0 1.0 4.0 15 44
+ 20.6476 0 2 ack 40 ------- 0 1.0 4.0 15 44
- 20.6476 0 2 ack 40 ------- 0 1.0 4.0 15 44
r 20.8476 2 3 ack 40 ------- 0 1.0 4.0 14 41
+ 20.8476 3 4 ack 40 ------- 0 1.0 4.0 14 41
- 20.8476 3 4 ack 40 ------- 0 1.0 4.0 14 41
r 20.897707 3 4 ack 40 ------- 0 1.0 4.0 14 41
+ 20.897707 4 3 tcp 1040 ------- 0 4.0 1.0 29 45
- 20.897707 4 3 tcp 1040 ------- 0 4.0 1.0 29 45
+ 20.897707 4 3 tcp 1040 ------- 0 4.0 1.0 30 46
- 20.90048 4 3 tcp 1040 ------- 0 4.0 1.0 30 46
r 20.95048 4 3 tcp 1040 ------- 0 4.0 1.0 29 45
+ 20.95048 3 2 tcp 1040 ------- 0 4.0 1.0 29 45
r 20.953253 4 3 tcp 1040 ------- 0 4.0 1.0 30 46
+ 20.953253 3 2 tcp 1040 ------- 0 4.0 1.0 30 46
d 20.953253 3 2 tcp 1040 ------- 0 4.0 1.0 30 46
r 20.991387 3 2 tcp 1040 ------- 0 4.0 1.0 17 27
+ 20.991387 2 0 tcp 1040 ------- 0 4.0 1.0 17 27
- 20.991387 2 0 tcp 1040 ------- 0 4.0 1.0 17 27
r 21.180933 0 2 ack 40 ------- 0 1.0 4.0 15 44
+ 21.180933 2 3 ack 40 ------- 0 1.0 4.0 15 44
- 21.180933 2 3 ack 40 ------- 0 1.0 4.0 15 44
- 21.358053 3 2 tcp 1040 ------- 0 4.0 1.0 21 33
r 21.491387 2 0 tcp 1040 ------- 0 4.0 1.0 16 25
+ 21.491387 0 1 tcp 1040 ------- 0 4.0 1.0 16 25
- 21.491387 0 1 tcp 1040 ------- 0 4.0 1.0 16 25
r 21.50416 0 1 tcp 1040 ------- 0 4.0 1.0 16 25
+ 21.50416 1 0 ack 40 ------- 0 1.0 4.0 16 47
- 21.50416 1 0 ack 40 ------- 0 1.0 4.0 16 47
r 21.514267 1 0 ack 40 ------- 0 1.0 4.0 16 47
+ 21.514267 0 2 ack 40 ------- 0 1.0 4.0 16 47
- 21.514267 0 2 ack 40 ------- 0 1.0 4.0 16 47
r 21.714267 2 3 ack 40 ------- 0 1.0 4.0 15 44
+ 21.714267 3 4 ack 40 ------- 0 1.0 4.0 15 44
- 21.714267 3 4 ack 40 ------- 0 1.0 4.0 15 44
r 21.764373 3 4 ack 40 ------- 0 1.0 4.0 15 44
+ 21.764373 4 3 tcp 1040 ------- 0 4.0 1.0 31 48
- 21.764373 4 3 tcp 1040 ------- 0 4.0 1.0 31 48
+ 21.764373 4 3 tcp 1040 ------- 0 4.0 1.0 32 49
- 21.767147 4 3 tcp 1040 ------- 0 4.0 1.0 32 49
r 21.817147 4 3 tcp 1040 ------- 0 4.0 1.0 31 48
+ 21.817147 3 2 tcp 1040 ------- 0 4.0 1.0 31 48
r 21.81992 4 3 tcp 1040 ------- 0 4.0 1.0 32 49
+ 21.81992 3 2 tcp 1040 ------- 0 4.0 1.0 32 49
d 21.81992 3 2 tcp 1040 ------- 0 4.0 1.0 32 49
r 21.858053 3 2 tcp 1040 ------- 0 4.0 1.0 19 30
+ 21.858053 2 0 tcp 1040 ------- 0 4.0 1.0 19 30
- 21.858053 2 0 tcp 1040 ------- 0 4.0 1.0 19 30
r 22.0476 0 2 ack 40 ------- 0 1.0 4.0 16 47
+ 22.0476 2 3 ack 40 ------- 0 1.0 4.0 16 47
- 22.0476 2 3 ack 40 ------- 0 1.0 4.0 16 47
- 22.22472 3 2 tcp 1040 ------- 0 4.0 1.0 23 36
r 22.358053 2 0 tcp 1040 ------- 0 4.0 1.0 17 27
+ 22.358053 0 1 tcp 1040 ------- 0 4.0 1.0 17 27
- 22.358053 0 1 tcp 1040 ------- 0 4.0 1.0 17 27
r 22.370827 0 1 tcp 1040 ------- 0 4.0 1.0 17 27
+ 22.370827 1 0 ack 40 ------- 0 1.0 4.0 17 50
- 22.370827 1 0 ack 40 ------- 0 1.0 4.0 17 50
r 22.380933 1 0 ack 40 ------- 0 1.0 4.0 17 50
+ 22.380933 0 2 ack 40 ------- 0 1.0 4.0 17 50
- 22.380933 0 2 ack 40 ------- 0 1.0 4.0 17 50
r 22.580933 2 3 ack 40 ------- 0 1.0 4.0 16 47
+ 22.580933 3 4 ack 40 ------- 0 1.0 4.0 16 47
- 22.580933 3 4 ack 40 ------- 0 1.0 4.0 16 47
r 22.63104 3 4 ack 40 ------- 0 1.0 4.0 16 47
+ 22.63104 4 3 tcp 1040 ------- 0 4.0 1.0 33 51
- 22.63104 4 3 tcp 1040 ------- 0 4.0 1.0 33 51
+ 22.63104 4 3 tcp 1040 ------- 0 4.0 1.0 34 52
- 22.633813 4 3 tcp 1040 ------- 0 4.0 1.0 34 52
r 22.683813 4 3 tcp 1040 ------- 0 4.0 1.0 33 51
+ 22.683813 3 2 tcp 1040 ------- 0 4.0 1.0 33 51
r 22.686587 4 3 tcp 1040 ------- 0 4.0 1.0 34 52
+ 22.686587 3 2 tcp 1040 ------- 0 4.0 1.0 34 52
d 22.686587 3 2 tcp 1040 ------- 0 4.0 1.0 34 52
r 22.72472 3 2 tcp 1040 ------- 0 4.0 1.0 21 33
+ 22.72472 2 0 tcp 1040 ------- 0 4.0 1.0 21 33
- 22.72472 2 0 tcp 1040 ------- 0 4.0 1.0 21 33
r 22.914267 0 2 ack 40 ------- 0 1.0 4.0 17 50
+ 22.914267 2 3 ack 40 ------- 0 1.0 4.0 17 50
- 22.914267 2 3 ack 40 ------- 0 1.0 4.0 17 50
- 23.091387 3 2 tcp 1040 ------- 0 4.0 1.0 25 39
r 23.22472 2 0 tcp 1040 ------- 0 4.0 1.0 19 30
+ 23.22472 0 1 tcp 1040 ------- 0 4.0 1.0 19 30
- 23.22472 0 1 tcp 1040 ------- 0 4.0 1.0 19 30
r 23.237493 0 1 tcp 1040 ------- 0 4.0 1.0 19 30
+ 23.237493 1 0 ack 48 ------- 0 1.0 4.0 17 53
- 23.237493 1 0 ack 48 ------- 0 1.0 4.0 17 53
r 23.247621 1 0 ack 48 ------- 0 1.0 4.0 17 53
+ 23.247621 0 2 ack 48 ------- 0 1.0 4.0 17 53
- 23.247621 0 2 ack 48 ------- 0 1.0 4.0 17 53
r 23.4476 2 3 ack 40 ------- 0 1.0 4.0 17 50
+ 23.4476 3 4 ack 40 ------- 0 1.0 4.0 17 50
- 23.4476 3 4 ack 40 ------- 0 1.0 4.0 17 50
r 23.497707 3 4 ack 40 ------- 0 1.0 4.0 17 50
+ 23.497707 4 3 tcp 1040 ------- 0 4.0 1.0 35 54
- 23.497707 4 3 tcp 1040 ------- 0 4.0 1.0 35 54
+ 23.497707 4 3 tcp 1040 ------- 0 4.0 1.0 36 55
- 23.50048 4 3 tcp 1040 ------- 0 4.0 1.0 36 55
r 23.55048 4 3 tcp 1040 ------- 0 4.0 1.0 35 54
+ 23.55048 3 2 tcp 1040 ------- 0 4.0 1.0 35 54
r 23.553253 4 3 tcp 1040 ------- 0 4.0 1.0 36 55
+ 23.553253 3 2 tcp 1040 ------- 0 4.0 1.0 36 55
d 23.553253 3 2 tcp 1040 ------- 0 4.0 1.0 36 55
r 23.591387 3 2 tcp 1040 ------- 0 4.0 1.0 23 36
+ 23.591387 2 0 tcp 1040 ------- 0 4.0 1.0 23 36
- 23.591387 2 0 tcp 1040 ------- 0 4.0 1.0 23 36
r 23.787621 0 2 ack 48 ------- 0 1.0 4.0 17 53
+ 23.787621 2 3 ack 48 ------- 0 1.0 4.0 17 53
- 23.787621 2 3 ack 48 ------- 0 1.0 4.0 17 53
- 23.958053 3 2 tcp 1040 ------- 0 4.0 1.0 27 42
r 24.091387 2 0 tcp 1040 ------- 0 4.0 1.0 21 33
+ 24.091387 0 1 tcp 1040 ------- 0 4.0 1.0 21 33
- 24.091387 0 1 tcp 1040 ------- 0 4.0 1.0 21 33
r 24.10416 0 1 tcp 1040 ------- 0 4.0 1.0 21 33
+ 24.10416 1 0 ack 56 ------- 0 1.0 4.0 17 56
- 24.10416 1 0 ack 56 ------- 0 1.0 4.0 17 56
r 24.114309 1 0 ack 56 ------- 0 1.0 4.0 17 56
+ 24.114309 0 2 ack 56 ------- 0 1.0 4.0 17 56
- 24.114309 0 2 ack 56 ------- 0 1.0 4.0 17 56
r 24.327621 2 3 ack 48 ------- 0 1.0 4.0 17 53
+ 24.327621 3 4 ack 48 ------- 0 1.0 4.0 17 53
- 24.327621 3 4 ack 48 ------- 0 1.0 4.0 17 53
r 24.377749 3 4 ack 48 ------- 0 1.0 4.0 17 53
+ 24.377749 4 3 tcp 1040 ------- 0 4.0 1.0 37 57
- 24.377749 4 3 tcp 1040 ------- 0 4.0 1.0 37 57
r 24.430523 4 3 tcp 1040 ------- 0 4.0 1.0 37 57
+ 24.430523 3 2 tcp 1040 ------- 0 4.0 1.0 37 57
r 24.458053 3 2 tcp 1040 ------- 0 4.0 1.0 25 39
+ 24.458053 2 0 tcp 1040 ------- 0 4.0 1.0 25 39
- 24.458053 2 0 tcp 1040 ------- 0 4.0 1.0 25 39
r 24.660976 0 2 ack 56 ------- 0 1.0 4.0 17 56
+ 24.660976 2 3 ack 56 ------- 0 1.0 4.0 17 56
- 24.660976 2 3 ack 56 ------- 0 1.0 4.0 17 56
- 24.82472 3 2 tcp 1040 ------- 0 4.0 1.0 29 45
r 24.958053 2 0 tcp 1040 ------- 0 4.0 1.0 23 36
+ 24.958053 0 1 tcp 1040 ------- 0 4.0 1.0 23 36
- 24.958053 0 1 tcp 1040 ------- 0 4.0 1.0 23 36
r 24.970827 0 1 tcp 1040 ------- 0 4.0 1.0 23 36
+ 24.970827 1 0 ack 64 ------- 0 1.0 4.0 17 58
- 24.970827 1 0 ack 64 ------- 0 1.0 4.0 17 58
r 24.980997 1 0 ack 64 ------- 0 1.0 4.0 17 58
+ 24.980997 0 2 ack 64 ------- 0 1.0 4.0 17 58
- 24.980997 0 2 ack 64 ------- 0 1.0 4.0 17 58
r 25.207643 2 3 ack 56 ------- 0 1.0 4.0 17 56
+ 25.207643 3 4 ack 56 ------- 0 1.0 4.0 17 56
- 25.207643 3 4 ack 56 ------- 0 1.0 4.0 17 56
r 25.257792 3 4 ack 56 ------- 0 1.0 4.0 17 56
r 25.32472 3 2 tcp 1040 ------- 0 4.0 1.0 27 42
+ 25.32472 2 0 tcp 1040 ------- 0 4.0 1.0 27 42
- 25.32472 2 0 tcp 1040 ------- 0 4.0 1.0 27 42
r 25.534331 0 2 ack 64 ------- 0 1.0 4.0 17 58
+ 25.534331 2 3 ack 64 ------- 0 1.0 4.0 17 58
- 25.534331 2 3 ack 64 ------- 0 1.0 4.0 17 58
- 25.691387 3 2 tcp 1040 ------- 0 4.0 1.0 31 48
r 25.82472 2 0 tcp 1040 ------- 0 4.0 1.0 25 39
+ 25.82472 0 1 tcp 1040 ------- 0 4.0 1.0 25 39
- 25.82472 0 1 tcp 1040 ------- 0 4.0 1.0 25 39
r 25.837493 0 1 tcp 1040 ------- 0 4.0 1.0 25 39
+ 25.837493 1 0 ack 64 ------- 0 1.0 4.0 17 59
- 25.837493 1 0 ack 64 ------- 0 1.0 4.0 17 59
r 25.847664 1 0 ack 64 ------- 0 1.0 4.0 17 59
+ 25.847664 0 2 ack 64 ------- 0 1.0 4.0 17 59
- 25.847664 0 2 ack 64 ------- 0 1.0 4.0 17 59
r 26.087664 2 3 ack 64 ------- 0 1.0 4.0 17 58
+ 26.087664 3 4 ack 64 ------- 0 1.0 4.0 17 58
- 26.087664 3 4 ack 64 ------- 0 1.0 4.0 17 58
r 26.137835 3 4 ack 64 ------- 0 1.0 4.0 17 58
+ 26.137835 4 3 tcp 1040 ---A--- 0 4.0 1.0 18 60
- 26.137835 4 3 tcp 1040 ---A--- 0 4.0 1.0 18 60
r 26.190608 4 3 tcp 1040 ---A--- 0 4.0 1.0 18 60
+ 26.190608 3 2 tcp 1040 ---A--- 0 4.0 1.0 18 60
r 26.191387 3 2 tcp 1040 ------- 0 4.0 1.0 29 45
+ 26.191387 2 0 tcp 1040 ------- 0 4.0 1.0 29 45
- 26.191387 2 0 tcp 1040 ------- 0 4.0 1.0 29 45
r 26.400997 0 2 ack 64 ------- 0 1.0 4.0 17 59
+ 26.400997 2 3 ack 64 ------- 0 1.0 4.0 17 59
- 26.400997 2 3 ack 64 ------- 0 1.0 4.0 17 59
- 26.558053 3 2 tcp 1040 ------- 0 4.0 1.0 33 51
r 26.691387 2 0 tcp 1040 ------- 0 4.0 1.0 27 42
+ 26.691387 0 1 tcp 1040 ------- 0 4.0 1.0 27 42
- 26.691387 0 1 tcp 1040 ------- 0 4.0 1.0 27 42
r 26.70416 0 1 tcp 1040 ------- 0 4.0 1.0 27 42
+ 26.70416 1 0 ack 64 ------- 0 1.0 4.0 17 61
- 26.70416 1 0 ack 64 ------- 0 1.0 4.0 17 61
r 26.714331 1 0 ack 64 ------- 0 1.0 4.0 17 61
+ 26.714331 0 2 ack 64 ------- 0 1.0 4.0 17 61
- 26.714331 0 2 ack 64 ------- 0 1.0 4.0 17 61
r 26.954331 2 3 ack 64 ------- 0 1.0 4.0 17 59
+ 26.954331 3 4 ack 64 ------- 0 1.0 4.0 17 59
- 26.954331 3 4 ack 64 ------- 0 1.0 4.0 17 59
r 27.004501 3 4 ack 64 ------- 0 1.0 4.0 17 59
r 27.058053 3 2 tcp 1040 ------- 0 4.0 1.0 31 48
+ 27.058053 2 0 tcp 1040 ------- 0 4.0 1.0 31 48
- 27.058053 2 0 tcp 1040 ------- 0 4.0 1.0 31 48
r 27.267664 0 2 ack 64 ------- 0 1.0 4.0 17 61
+ 27.267664 2 3 ack 64 ------- 0 1.0 4.0 17 61
- 27.267664 2 3 ack 64 ------- 0 1.0 4.0 17 61
- 27.42472 3 2 tcp 1040 ------- 0 4.0 1.0 35 54
r 27.558053 2 0 tcp 1040 ------- 0 4.0 1.0 29 45
+ 27.558053 0 1 tcp 1040 ------- 0 4.0 1.0 29 45
- 27.558053 0 1 tcp 1040 ------- 0 4.0 1.0 29 45
r 27.570827 0 1 tcp 1040 ------- 0 4.0 1.0 29 45
+ 27.570827 1 0 ack 64 ------- 0 1.0 4.0 17 62
- 27.570827 1 0 ack 64 ------- 0 1.0 4.0 17 62