+ 0.1 0 2 cbr 210 ------- 0 0.0 3.0 0 0
- 0.1 0 2 cbr 210 ------- 0 0.0 3.0 0 0
+ 0.10375 0 2 cbr 210 ------- 0 0.0 3.0 1 1
+ 0.1075 0 2 cbr 210 ------- 0 0.0 3.0 2 2
+ 0.11125 0 2 cbr 210 ------- 0 0.0 3.0 3 3
+ 0.115 0 2 cbr 210 ------- 0 0.0 3.0 4 4
- 0.1168 0 2 cbr 210 ------- 0 0.0 3.0 1 1
+ 0.11875 0 2 cbr 210 ------- 0 0.0 3.0 5 5
+ 0.1225 0 2 cbr 210 ------- 0 0.0 3.0 6 6
d 0.1225 0 2 cbr 210 ------- 0 0.0 3.0 6 6
+ 0.12625 0 2 cbr 210 ------- 0 0.0 3.0 7 7
d 0.12625 0 2 cbr 210 ------- 0 0.0 3.0 7 7
+ 0.13 0 2 cbr 210 ------- 0 0.0 3.0 8 8
d 0.13 0 2 cbr 210 ------- 0 0.0 3.0 8 8
- 0.1336 0 2 cbr 210 ------- 0 0.0 3.0 2 2
+ 0.13375 0 2 cbr 210 ------- 0 0.0 3.0 9 9
+ 0.1375 0 2 cbr 210 ------- 0 0.0 3.0 10 10
d 0.1375 0 2 cbr 210 ------- 0 0.0 3.0 10 10
+ 0.14125 0 2 cbr 210 ------- 0 0.0 3.0 11 11
d 0.14125 0 2 cbr 210 ------- 0 0.0 3.0 11 11
+ 0.145 0 2 cbr 210 ------- 0 0.0 3.0 12 12
d 0.145 0 2 cbr 210 ------- 0 0.0 3.0 12 12
+ 0.14875 0 2 cbr 210 ------- 0 0.0 3.0 13 13
d 0.14875 0 2 cbr 210 ------- 0 0.0 3.0 13 13
- 0.1504 0 2 cbr 210 ------- 0 0.0 3.0 3 3
+ 0.1525 0 2 cbr 210 ------- 0 0.0 3.0 14 14
+ 0.15625 0 2 cbr 210 ------- 0 0.0 3.0 15 15
d 0.15625 0 2 cbr 210 ------- 0 0.0 3.0 15 15
+ 0.16 0 2 cbr 210 ------- 0 0.0 3.0 16 16
d 0.16 0 2 cbr 210 ------- 0 0.0 3.0 16 16
+ 0.16375 0 2 cbr 210 ------- 0 0.0 3.0 17 17
d 0.16375 0 2 cbr 210 ------- 0 0.0 3.0 17 17
- 0.1672 0 2 cbr 210 ------- 0 0.0 3.0 4 4
+ 0.1675 0 2 cbr 210 ------- 0 0.0 3.0 18 18
+ 0.17125 0 2 cbr 210 ------- 0 0.0 3.0 19 19
d 0.17125 0 2 cbr 210 ------- 0 0.0 3.0 19 19
+ 0.175 0 2 cbr 210 ------- 0 0.0 3.0 20 20
d 0.175 0 2 cbr 210 ------- 0 0.0 3.0 20 20
+ 0.17875 0 2 cbr 210 ------- 0 0.0 3.0 21 21
d 0.17875 0 2 cbr 210 ------- 0 0.0 3.0 21 21
+ 0.1825 0 2 cbr 210 ------- 0 0.0 3.0 22 22
d 0.1825 0 2 cbr 210 ------- 0 0.0 3.0 22 22
- 0.184 0 2 cbr 210 ------- 0 0.0 3.0 5 5
+ 0.18625 0 2 cbr 210 ------- 0 0.0 3.0 23 23
+ 0.19 0 2 cbr 210 ------- 0 0.0 3.0 24 24
d 0.19 0 2 cbr 210 ------- 0 0.0 3.0 24 24
+ 0.19375 0 2 cbr 210 ------- 0 0.0 3.0 25 25
d 0.19375 0 2 cbr 210 ------- 0 0.0 3.0 25 25
+ 0.1975 0 2 cbr 210 ------- 0 0.0 3.0 26 26
d 0.1975 0 2 cbr 210 ------- 0 0.0 3.0 26 26
+ 0.2 1 2 cbr 210 ------- 0 1.0 3.0 0 27
- 0.2 1 2 cbr 210 ------- 0 1.0 3.0 0 27
- 0.2008 0 2 cbr 210 ------- 0 0.0 3.0 9 9
+ 0.20125 0 2 cbr 210 ------- 0 0.0 3.0 27 28
+ 0.20375 1 2 cbr 210 ------- 0 1.0 3.0 1 29
+ 0.205 0 2 cbr 210 ------- 0 0.0 3.0 28 30
d 0.205 0 2 cbr 210 ------- 0 0.0 3.0 28 30
+ 0.2075 1 2 cbr 210 ------- 0 1.0 3.0 2 31
+ 0.20875 0 2 cbr 210 ------- 0 0.0 3.0 29 32
d 0.20875 0 2 cbr 210 ------- 0 0.0 3.0 29 32
+ 0.21125 1 2 cbr 210 ------- 0 1.0 3.0 3 33
+ 0.2125 0 2 cbr 210 ------- 0 0.0 3.0 30 34
d 0.2125 0 2 cbr 210 ------- 0 0.0 3.0 30 34
+ 0.215 1 2 cbr 210 ------- 0 1.0 3.0 4 35
+ 0.21625 0 2 cbr 210 ------- 0 0.0 3.0 31 36
d 0.21625 0 2 cbr 210 ------- 0 0.0 3.0 31 36
r 0.2168 0 2 cbr 210 ------- 0 0.0 3.0 0 0
+ 0.2168 2 3 cbr 210 ------- 0 0.0 3.0 0 0
- 0.2168 2 3 cbr 210 ------- 0 0.0 3.0 0 0
- 0.2168 1 2 cbr 210 ------- 0 1.0 3.0 1 29
- 0.2176 0 2 cbr 210 ------- 0 0.0 3.0 14 14
+ 0.21875 1 2 cbr 210 ------- 0 1.0 3.0 5 37
+ 0.22 0 2 cbr 210 ------- 0 0.0 3.0 32 38
+ 0.2225 1 2 cbr 210 ------- 0 1.0 3.0 6 39
d 0.2225 1 2 cbr 210 ------- 0 1.0 3.0 6 39
+ 0.22375 0 2 cbr 210 ------- 0 0.0 3.0 33 40
d 0.22375 0 2 cbr 210 ------- 0 0.0 3.0 33 40
+ 0.22625 1 2 cbr 210 ------- 0 1.0 3.0 7 41
d 0.22625 1 2 cbr 210 ------- 0 1.0 3.0 7 41
+ 0.2275 0 2 cbr 210 ------- 0 0.0 3.0 34 42
d 0.2275 0 2 cbr 210 ------- 0 0.0 3.0 34 42
+ 0.23 1 2 cbr 210 ------- 0 1.0 3.0 8 43
d 0.23 1 2 cbr 210 ------- 0 1.0 3.0 8 43
+ 0.23125 0 2 cbr 210 ------- 0 0.0 3.0 35 44
d 0.23125 0 2 cbr 210 ------- 0 0.0 3.0 35 44
r 0.2336 0 2 cbr 210 ------- 0 0.0 3.0 1 1
+ 0.2336 2 3 cbr 210 ------- 0 0.0 3.0 1 1
- 0.2336 2 3 cbr 210 ------- 0 0.0 3.0 1 1
- 0.2336 1 2 cbr 210 ------- 0 1.0 3.0 2 31
+ 0.23375 1 2 cbr 210 ------- 0 1.0 3.0 9 45
- 0.2344 0 2 cbr 210 ------- 0 0.0 3.0 18 18
r 0.2346 2 3 cbr 210 ------- 0 0.0 3.0 0 0
+ 0.235 0 2 cbr 210 ------- 0 0.0 3.0 36 46
+ 0.2375 1 2 cbr 210 ------- 0 1.0 3.0 10 47
d 0.2375 1 2 cbr 210 ------- 0 1.0 3.0 10 47
+ 0.23875 0 2 cbr 210 ------- 0 0.0 3.0 37 48
d 0.23875 0 2 cbr 210 ------- 0 0.0 3.0 37 48
+ 0.24125 1 2 cbr 210 ------- 0 1.0 3.0 11 49
d 0.24125 1 2 cbr 210 ------- 0 1.0 3.0 11 49
+ 0.2425 0 2 cbr 210 ------- 0 0.0 3.0 38 50
d 0.2425 0 2 cbr 210 ------- 0 0.0 3.0 38 50
+ 0.245 1 2 cbr 210 ------- 0 1.0 3.0 12 51
d 0.245 1 2 cbr 210 ------- 0 1.0 3.0 12 51
+ 0.24625 0 2 cbr 210 ------- 0 0.0 3.0 39 52
d 0.24625 0 2 cbr 210 ------- 0 0.0 3.0 39 52
+ 0.24875 1 2 cbr 210 ------- 0 1.0 3.0 13 53
d 0.24875 1 2 cbr 210 ------- 0 1.0 3.0 13 53
+ 0.25 0 2 cbr 210 ------- 0 0.0 3.0 40 54
d 0.25 0 2 cbr 210 ------- 0 0.0 3.0 40 54
r 0.2504 0 2 cbr 210 ------- 0 0.0 3.0 2 2
+ 0.2504 2 3 cbr 210 ------- 0 0.0 3.0 2 2
- 0.2504 2 3 cbr 210 ------- 0 0.0 3.0 2 2
- 0.2504 1 2 cbr 210 ------- 0 1.0 3.0 3 33
- 0.2512 0 2 cbr 210 ------- 0 0.0 3.0 23 23
r 0.2514 2 3 cbr 210 ------- 0 0.0 3.0 1 1
+ 0.2525 1 2 cbr 210 ------- 0 1.0 3.0 14 55
+ 0.25375 0 2 cbr 210 ------- 0 0.0 3.0 41 56
+ 0.25625 1 2 cbr 210 ------- 0 1.0 3.0 15 57
d 0.25625 1 2 cbr 210 ------- 0 1.0 3.0 15 57
+ 0.2575 0 2 cbr 210 ------- 0 0.0 3.0 42 58
d 0.2575 0 2 cbr 210 ------- 0 0.0 3.0 42 58
+ 0.26 1 2 cbr 210 ------- 0 1.0 3.0 16 59
d 0.26 1 2 cbr 210 ------- 0 1.0 3.0 16 59
+ 0.26125 0 2 cbr 210 ------- 0 0.0 3.0 43 60
d 0.26125 0 2 cbr 210 ------- 0 0.0 3.0 43 60
+ 0.26375 1 2 cbr 210 ------- 0 1.0 3.0 17 61
d 0.26375 1 2 cbr 210 ------- 0 1.0 3.0 17 61
+ 0.265 0 2 cbr 210 ------- 0 0.0 3.0 44 62
d 0.265 0 2 cbr 210 ------- 0 0.0 3.0 44 62
r 0.2672 0 2 cbr 210 ------- 0 0.0 3.0 3 3
+ 0.2672 2 3 cbr 210 ------- 0 0.0 3.0 3 3
- 0.2672 2 3 cbr 210 ------- 0 0.0 3.0 3 3
- 0.2672 1 2 cbr 210 ------- 0 1.0 3.0 4 35
+ 0.2675 1 2 cbr 210 ------- 0 1.0 3.0 18 63
- 0.268 0 2 cbr 210 ------- 0 0.0 3.0 27 28
r 0.2682 2 3 cbr 210 ------- 0 0.0 3.0 2 2
+ 0.26875 0 2 cbr 210 ------- 0 0.0 3.0 45 64
+ 0.27125 1 2 cbr 210 ------- 0 1.0 3.0 19 65
d 0.27125 1 2 cbr 210 ------- 0 1.0 3.0 19 65
+ 0.2725 0 2 cbr 210 ------- 0 0.0 3.0 46 66
d 0.2725 0 2 cbr 210 ------- 0 0.0 3.0 46 66
+ 0.275 1 2 cbr 210 ------- 0 1.0 3.0 20 67
d 0.275 1 2 cbr 210 ------- 0 1.0 3.0 20 67
+ 0.27625 0 2 cbr 210 ------- 0 0.0 3.0 47 68
d 0.27625 0 2 cbr 210 ------- 0 0.0 3.0 47 68
+ 0.27875 1 2 cbr 210 ------- 0 1.0 3.0 21 69
d 0.27875 1 2 cbr 210 ------- 0 1.0 3.0 21 69
+ 0.28 0 2 cbr 210 ------- 0 0.0 3.0 48 70
d 0.28 0 2 cbr 210 ------- 0 0.0 3.0 48 70
+ 0.2825 1 2 cbr 210 ------- 0 1.0 3.0 22 71
d 0.2825 1 2 cbr 210 ------- 0 1.0 3.0 22 71
+ 0.28375 0 2 cbr 210 ------- 0 0.0 3.0 49 72
d 0.28375 0 2 cbr 210 ------- 0 0.0 3.0 49 72
- 0.284 1 2 cbr 210 ------- 0 1.0 3.0 5 37
r 0.284 0 2 cbr 210 ------- 0 0.0 3.0 4 4
+ 0.284 2 3 cbr 210 ------- 0 0.0 3.0 4 4
- 0.284 2 3 cbr 210 ------- 0 0.0 3.0 4 4
- 0.2848 0 2 cbr 210 ------- 0 0.0 3.0 32 38
r 0.285 2 3 cbr 210 ------- 0 0.0 3.0 3 3
+ 0.28625 1 2 cbr 210 ------- 0 1.0 3.0 23 73
+ 0.2875 0 2 cbr 210 ------- 0 0.0 3.0 50 74
+ 0.29 1 2 cbr 210 ------- 0 1.0 3.0 24 75
d 0.29 1 2 cbr 210 ------- 0 1.0 3.0 24 75
+ 0.29125 0 2 cbr 210 ------- 0 0.0 3.0 51 76
d 0.29125 0 2 cbr 210 ------- 0 0.0 3.0 51 76
+ 0.29375 1 2 cbr 210 ------- 0 1.0 3.0 25 77
d 0.29375 1 2 cbr 210 ------- 0 1.0 3.0 25 77
+ 0.295 0 2 cbr 210 ------- 0 0.0 3.0 52 78
d 0.295 0 2 cbr 210 ------- 0 0.0 3.0 52 78
+ 0.2975 1 2 cbr 210 ------- 0 1.0 3.0 26 79
d 0.2975 1 2 cbr 210 ------- 0 1.0 3.0 26 79
+ 0.29875 0 2 cbr 210 ------- 0 0.0 3.0 53 80
d 0.29875 0 2 cbr 210 ------- 0 0.0 3.0 53 80
- 0.3008 1 2 cbr 210 ------- 0 1.0 3.0 9 45
r 0.3008 0 2 cbr 210 ------- 0 0.0 3.0 5 5
+ 0.3008 2 3 cbr 210 ------- 0 0.0 3.0 5 5
- 0.3008 2 3 cbr 210 ------- 0 0.0 3.0 5 5
+ 0.30125 1 2 cbr 210 ------- 0 1.0 3.0 27 81
- 0.3016 0 2 cbr 210 ------- 0 0.0 3.0 36 46
r 0.3018 2 3 cbr 210 ------- 0 0.0 3.0 4 4
+ 0.3025 0 2 cbr 210 ------- 0 0.0 3.0 54 82
+ 0.305 1 2 cbr 210 ------- 0 1.0 3.0 28 83
d 0.305 1 2 cbr 210 ------- 0 1.0 3.0 28 83
+ 0.30625 0 2 cbr 210 ------- 0 0.0 3.0 55 84
d 0.30625 0 2 cbr 210 ------- 0 0.0 3.0 55 84
+ 0.30875 1 2 cbr 210 ------- 0 1.0 3.0 29 85
d 0.30875 1 2 cbr 210 ------- 0 1.0 3.0 29 85
+ 0.31 0 2 cbr 210 ------- 0 0.0 3.0 56 86
d 0.31 0 2 cbr 210 ------- 0 0.0 3.0 56 86
+ 0.3125 1 2 cbr 210 ------- 0 1.0 3.0 30 87
d 0.3125 1 2 cbr 210 ------- 0 1.0 3.0 30 87
+ 0.31375 0 2 cbr 210 ------- 0 0.0 3.0 57 88
d 0.31375 0 2 cbr 210 ------- 0 0.0 3.0 57 88
+ 0.31625 1 2 cbr 210 ------- 0 1.0 3.0 31 89
d 0.31625 1 2 cbr 210 ------- 0 1.0 3.0 31 89
r 0.3168 1 2 cbr 210 ------- 0 1.0 3.0 0 27
+ 0.3168 2 3 cbr 210 ------- 0 1.0 3.0 0 27
+ 0.3175 0 2 cbr 210 ------- 0 0.0 3.0 58 90
d 0.3175 0 2 cbr 210 ------- 0 0.0 3.0 58 90
- 0.3176 1 2 cbr 210 ------- 0 1.0 3.0 14 55
- 0.3176 2 3 cbr 210 ------- 0 1.0 3.0 0 27
r 0.3176 0 2 cbr 210 ------- 0 0.0 3.0 9 9
+ 0.3176 2 3 cbr 210 ------- 0 0.0 3.0 9 9
- 0.3184 0 2 cbr 210 ------- 0 0.0 3.0 41 56
r 0.3186 2 3 cbr 210 ------- 0 0.0 3.0 5 5
+ 0.32 1 2 cbr 210 ------- 0 1.0 3.0 32 91
+ 0.32125 0 2 cbr 210 ------- 0 0.0 3.0 59 92
+ 0.32375 1 2 cbr 210 ------- 0 1.0 3.0 33 93
d 0.32375 1 2 cbr 210 ------- 0 1.0 3.0 33 93
+ 0.325 0 2 cbr 210 ------- 0 0.0 3.0 60 94
d 0.325 0 2 cbr 210 ------- 0 0.0 3.0 60 94
+ 0.3275 1 2 cbr 210 ------- 0 1.0 3.0 34 95
d 0.3275 1 2 cbr 210 ------- 0 1.0 3.0 34 95
+ 0.32875 0 2 cbr 210 ------- 0 0.0 3.0 61 96
d 0.32875 0 2 cbr 210 ------- 0 0.0 3.0 61 96
+ 0.33125 1 2 cbr 210 ------- 0 1.0 3.0 35 97
d 0.33125 1 2 cbr 210 ------- 0 1.0 3.0 35 97
+ 0.3325 0 2 cbr 210 ------- 0 0.0 3.0 62 98
d 0.3325 0 2 cbr 210 ------- 0 0.0 3.0 62 98
r 0.3336 1 2 cbr 210 ------- 0 1.0 3.0 1 29
+ 0.3336 2 3 cbr 210 ------- 0 1.0 3.0 1 29
- 0.3344 1 2 cbr 210 ------- 0 1.0 3.0 18 63
- 0.3344 2 3 cbr 210 ------- 0 0.0 3.0 9 9
r 0.3344 0 2 cbr 210 ------- 0 0.0 3.0 14 14
+ 0.3344 2 3 cbr 210 ------- 0 0.0 3.0 14 14
+ 0.335 1 2 cbr 210 ------- 0 1.0 3.0 36 99
- 0.3352 0 2 cbr 210 ------- 0 0.0 3.0 45 64
r 0.3354 2 3 cbr 210 ------- 0 1.0 3.0 0 27
+ 0.33625 0 2 cbr 210 ------- 0 0.0 3.0 63 100
+ 0.33875 1 2 cbr 210 ------- 0 1.0 3.0 37 101
d 0.33875 1 2 cbr 210 ------- 0 1.0 3.0 37 101
+ 0.34 0 2 cbr 210 ------- 0 0.0 3.0 64 102
d 0.34 0 2 cbr 210 ------- 0 0.0 3.0 64 102
+ 0.3425 1 2 cbr 210 ------- 0 1.0 3.0 38 103
d 0.3425 1 2 cbr 210 ------- 0 1.0 3.0 38 103
+ 0.34375 0 2 cbr 210 ------- 0 0.0 3.0 65 104
d 0.34375 0 2 cbr 210 ------- 0 0.0 3.0 65 104
+ 0.34625 1 2 cbr 210 ------- 0 1.0 3.0 39 105
d 0.34625 1 2 cbr 210 ------- 0 1.0 3.0 39 105
+ 0.3475 0 2 cbr 210 ------- 0 0.0 3.0 66 106
d 0.3475 0 2 cbr 210 ------- 0 0.0 3.0 66 106
+ 0.35 1 2 cbr 210 ------- 0 1.0 3.0 40 107
d 0.35 1 2 cbr 210 ------- 0 1.0 3.0 40 107
r 0.3504 1 2 cbr 210 ------- 0 1.0 3.0 2 31
+ 0.3504 2 3 cbr 210 ------- 0 1.0 3.0 2 31
- 0.3512 1 2 cbr 210 ------- 0 1.0 3.0 23 73
- 0.3512 2 3 cbr 210 ------- 0 1.0 3.0 1 29
r 0.3512 0 2 cbr 210 ------- 0 0.0 3.0 18 18
+ 0.3512 2 3 cbr 210 ------- 0 0.0 3.0 18 18
+ 0.35125 0 2 cbr 210 ------- 0 0.0 3.0 67 108
d 0.35125 0 2 cbr 210 ------- 0 0.0 3.0 67 108
- 0.352 0 2 cbr 210 ------- 0 0.0 3.0 50 74
r 0.3522 2 3 cbr 210 ------- 0 0.0 3.0 9 9
+ 0.35375 1 2 cbr 210 ------- 0 1.0 3.0 41 109
+ 0.355 0 2 cbr 210 ------- 0 0.0 3.0 68 110
+ 0.3575 1 2 cbr 210 ------- 0 1.0 3.0 42 111
d 0.3575 1 2 cbr 210 ------- 0 1.0 3.0 42 111
+ 0.35875 0 2 cbr 210 ------- 0 0.0 3.0 69 112
d 0.35875 0 2 cbr 210 ------- 0 0.0 3.0 69 112
+ 0.36125 1 2 cbr 210 ------- 0 1.0 3.0 43 113
d 0.36125 1 2 cbr 210 ------- 0 1.0 3.0 43 113
+ 0.3625 0 2 cbr 210 ------- 0 0.0 3.0 70 114
d 0.3625 0 2 cbr 210 ------- 0 0.0 3.0 70 114
+ 0.365 1 2 cbr 210 ------- 0 1.0 3.0 44 115
d 0.365 1 2 cbr 210 ------- 0 1.0 3.0 44 115
+ 0.36625 0 2 cbr 210 ------- 0 0.0 3.0 71 116
d 0.36625 0 2 cbr 210 ------- 0 0.0 3.0 71 116
r 0.3672 1 2 cbr 210 ------- 0 1.0 3.0 3 33
+ 0.3672 2 3 cbr 210 ------- 0 1.0 3.0 3 33
- 0.368 1 2 cbr 210 ------- 0 1.0 3.0 27 81
- 0.368 2 3 cbr 210 ------- 0 0.0 3.0 14 14
r 0.368 0 2 cbr 210 ------- 0 0.0 3.0 23 23
+ 0.368 2 3 cbr 210 ------- 0 0.0 3.0 23 23
+ 0.36875 1 2 cbr 210 ------- 0 1.0 3.0 45 117
- 0.3688 0 2 cbr 210 ------- 0 0.0 3.0 54 82
r 0.369 2 3 cbr 210 ------- 0 1.0 3.0 1 29
+ 0.37 0 2 cbr 210 ------- 0 0.0 3.0 72 118
+ 0.3725 1 2 cbr 210 ------- 0 1.0 3.0 46 119
d 0.3725 1 2 cbr 210 ------- 0 1.0 3.0 46 119
+ 0.37375 0 2 cbr 210 ------- 0 0.0 3.0 73 120
d 0.37375 0 2 cbr 210 ------- 0 0.0 3.0 73 120
+ 0.37625 1 2 cbr 210 ------- 0 1.0 3.0 47 121
d 0.37625 1 2 cbr 210 ------- 0 1.0 3.0 47 121
+ 0.3775 0 2 cbr 210 ------- 0 0.0 3.0 74 122
d 0.3775 0 2 cbr 210 ------- 0 0.0 3.0 74 122
+ 0.38 1 2 cbr 210 ------- 0 1.0 3.0 48 123
d 0.38 1 2 cbr 210 ------- 0 1.0 3.0 48 123
+ 0.38125 0 2 cbr 210 ------- 0 0.0 3.0 75 124
d 0.38125 0 2 cbr 210 ------- 0 0.0 3.0 75 124
+ 0.38375 1 2 cbr 210 ------- 0 1.0 3.0 49 125
d 0.38375 1 2 cbr 210 ------- 0 1.0 3.0 49 125
r 0.384 1 2 cbr 210 ------- 0 1.0 3.0 4 35
+ 0.384 2 3 cbr 210 ------- 0 1.0 3.0 4 35
- 0.3848 1 2 cbr 210 ------- 0 1.0 3.0 32 91
- 0.3848 2 3 cbr 210 ------- 0 1.0 3.0 2 31
r 0.3848 0 2 cbr 210 ------- 0 0.0 3.0 27 28
+ 0.3848 2 3 cbr 210 ------- 0 0.0 3.0 27 28
+ 0.385 0 2 cbr 210 ------- 0 0.0 3.0 76 126
d 0.385 0 2 cbr 210 ------- 0 0.0 3.0 76 126
- 0.3856 0 2 cbr 210 ------- 0 0.0 3.0 59 92
r 0.3858 2 3 cbr 210 ------- 0 0.0 3.0 14 14
+ 0.3875 1 2 cbr 210 ------- 0 1.0 3.0 50 127
+ 0.38875 0 2 cbr 210 ------- 0 0.0 3.0 77 128
+ 0.39125 1 2 cbr 210 ------- 0 1.0 3.0 51 129
d 0.39125 1 2 cbr 210 ------- 0 1.0 3.0 51 129
+ 0.3925 0 2 cbr 210 ------- 0 0.0 3.0 78 130
d 0.3925 0 2 cbr 210 ------- 0 0.0 3.0 78 130
+ 0.395 1 2 cbr 210 ------- 0 1.0 3.0 52 131
d 0.395 1 2 cbr 210 ------- 0 1.0 3.0 52 131
+ 0.39625 0 2 cbr 210 ------- 0 0.0 3.0 79 132
d 0.39625 0 2 cbr 210 ------- 0 0.0 3.0 79 132
+ 0.39875 1 2 cbr 210 ------- 0 1.0 3.0 53 133
d 0.39875 1 2 cbr 210 ------- 0 1.0 3.0 53 133
+ 0.4 0 2 cbr 210 ------- 0 0.0 3.0 80 134
d 0.4 0 2 cbr 210 ------- 0 0.0 3.0 80 134
r 0.4008 1 2 cbr 210 ------- 0 1.0 3.0 5 37
+ 0.4008 2 3 cbr 210 ------- 0 1.0 3.0 5 37
- 0.4016 1 2 cbr 210 ------- 0 1.0 3.0 36 99
- 0.4016 2 3 cbr 210 ------- 0 0.0 3.0 18 18
r 0.4016 0 2 cbr 210 ------- 0 0.0 3.0 32 38
+ 0.4016 2 3 cbr 210 ------- 0 0.0 3.0 32 38
- 0.4024 0 2 cbr 210 ------- 0 0.0 3.0 63 100
+ 0.4025 1 2 cbr 210 ------- 0 1.0 3.0 54 135
r 0.4026 2 3 cbr 210 ------- 0 1.0 3.0 2 31
+ 0.40375 0 2 cbr 210 ------- 0 0.0 3.0 81 136
+ 0.40625 1 2 cbr 210 ------- 0 1.0 3.0 55 137
d 0.40625 1 2 cbr 210 ------- 0 1.0 3.0 55 137
+ 0.4075 0 2 cbr 210 ------- 0 0.0 3.0 82 138
d 0.4075 0 2 cbr 210 ------- 0 0.0 3.0 82 138
+ 0.41 1 2 cbr 210 ------- 0 1.0 3.0 56 139
d 0.41 1 2 cbr 210 ------- 0 1.0 3.0 56 139
+ 0.41125 0 2 cbr 210 ------- 0 0.0 3.0 83 140
d 0.41125 0 2 cbr 210 ------- 0 0.0 3.0 83 140
+ 0.41375 1 2 cbr 210 ------- 0 1.0 3.0 57 141
d 0.41375 1 2 cbr 210 ------- 0 1.0 3.0 57 141
+ 0.415 0 2 cbr 210 ------- 0 0.0 3.0 84 142
d 0.415 0 2 cbr 210 ------- 0 0.0 3.0 84 142
+ 0.4175 1 2 cbr 210 ------- 0 1.0 3.0 58 143
d 0.4175 1 2 cbr 210 ------- 0 1.0 3.0 58 143
r 0.4176 1 2 cbr 210 ------- 0 1.0 3.0 9 45
+ 0.4176 2 3 cbr 210 ------- 0 1.0 3.0 9 45
- 0.4184 1 2 cbr 210 ------- 0 1.0 3.0 41 109
- 0.4184 2 3 cbr 210 ------- 0 1.0 3.0 3 33
r 0.4184 0 2 cbr 210 ------- 0 0.0 3.0 36 46
+ 0.4184 2 3 cbr 210 ------- 0 0.0 3.0 36 46
+ 0.41875 0 2 cbr 210 ------- 0 0.0 3.0 85 144
d 0.41875 0 2 cbr 210 ------- 0 0.0 3.0 85 144
- 0.4192 0 2 cbr 210 ------- 0 0.0 3.0 68 110
r 0.4194 2 3 cbr 210 ------- 0 0.0 3.0 18 18
+ 0.42125 1 2 cbr 210 ------- 0 1.0 3.0 59 145
+ 0.4225 0 2 cbr 210 ------- 0 0.0 3.0 86 146
+ 0.425 1 2 cbr 210 ------- 0 1.0 3.0 60 147
d 0.425 1 2 cbr 210 ------- 0 1.0 3.0 60 147
+ 0.42625 0 2 cbr 210 ------- 0 0.0 3.0 87 148
d 0.42625 0 2 cbr 210 ------- 0 0.0 3.0 87 148
+ 0.42875 1 2 cbr 210 ------- 0 1.0 3.0 61 149
d 0.42875 1 2 cbr 210 ------- 0 1.0 3.0 61 149
+ 0.43 0 2 cbr 210 ------- 0 0.0 3.0 88 150
d 0.43 0 2 cbr 210 ------- 0 0.0 3.0 88 150
+ 0.4325 1 2 cbr 210 ------- 0 1.0 3.0 62 151
d 0.4325 1 2 cbr 210 ------- 0 1.0 3.0 62 151
+ 0.43375 0 2 cbr 210 ------- 0 0.0 3.0 89 152
d 0.43375 0 2 cbr 210 ------- 0 0.0 3.0 89 152
r 0.4344 1 2 cbr 210 ------- 0 1.0 3.0 14 55
+ 0.4344 2 3 cbr 210 ------- 0 1.0 3.0 14 55
- 0.4352 1 2 cbr 210 ------- 0 1.0 3.0 45 117
- 0.4352 2 3 cbr 210 ------- 0 0.0 3.0 23 23
r 0.4352 0 2 cbr 210 ------- 0 0.0 3.0 41 56
+ 0.4352 2 3 cbr 210 ------- 0 0.0 3.0 41 56
- 0.436 0 2 cbr 210 ------- 0 0.0 3.0 72 118
r 0.4362 2 3 cbr 210 ------- 0 1.0 3.0 3 33
+ 0.43625 1 2 cbr 210 ------- 0 1.0 3.0 63 153
+ 0.4375 0 2 cbr 210 ------- 0 0.0 3.0 90 154
+ 0.44 1 2 cbr 210 ------- 0 1.0 3.0 64 155
d 0.44 1 2 cbr 210 ------- 0 1.0 3.0 64 155
+ 0.44125 0 2 cbr 210 ------- 0 0.0 3.0 91 156
d 0.44125 0 2 cbr 210 ------- 0 0.0 3.0 91 156
+ 0.44375 1 2 cbr 210 ------- 0 1.0 3.0 65 157
d 0.44375 1 2 cbr 210 ------- 0 1.0 3.0 65 157
+ 0.445 0 2 cbr 210 ------- 0 0.0 3.0 92 158
d 0.445 0 2 cbr 210 ------- 0 0.0 3.0 92 158
+ 0.4475 1 2 cbr 210 ------- 0 1.0 3.0 66 159
d 0.4475 1 2 cbr 210 ------- 0 1.0 3.0 66 159
+ 0.44875 0 2 cbr 210 ------- 0 0.0 3.0 93 160
d 0.44875 0 2 cbr 210 ------- 0 0.0 3.0 93 160
r 0.4512 1 2 cbr 210 ------- 0 1.0 3.0 18 63
+ 0.4512 2 3 cbr 210 ------- 0 1.0 3.0 18 63
+ 0.45125 1 2 cbr 210 ------- 0 1.0 3.0 67 161
d 0.45125 1 2 cbr 210 ------- 0 1.0 3.0 67 161
- 0.452 1 2 cbr 210 ------- 0 1.0 3.0 50 127
- 0.452 2 3 cbr 210 ------- 0 1.0 3.0 4 35
r 0.452 0 2 cbr 210 ------- 0 0.0 3.0 45 64
+ 0.452 2 3 cbr 210 ------- 0 0.0 3.0 45 64
+ 0.4525 0 2 cbr 210 ------- 0 0.0 3.0 94 162
d 0.4525 0 2 cbr 210 ------- 0 0.0 3.0 94 162
- 0.4528 0 2 cbr 210 ------- 0 0.0 3.0 77 128
r 0.453 2 3 cbr 210 ------- 0 0.0 3.0 23 23
+ 0.455 1 2 cbr 210 ------- 0 1.0 3.0 68 163
+ 0.45625 0 2 cbr 210 ------- 0 0.0 3.0 95 164
+ 0.45875 1 2 cbr 210 ------- 0 1.0 3.0 69 165
d 0.45875 1 2 cbr 210 ------- 0 1.0 3.0 69 165
+ 0.46 0 2 cbr 210 ------- 0 0.0 3.0 96 166
d 0.46 0 2 cbr 210 ------- 0 0.0 3.0 96 166
+ 0.4625 1 2 cbr 210 ------- 0 1.0 3.0 70 167
d 0.4625 1 2 cbr 210 ------- 0 1.0 3.0 70 167
+ 0.46375 0 2 cbr 210 ------- 0 0.0 3.0 97 168
d 0.46375 0 2 cbr 210 ------- 0 0.0 3.0 97 168
+ 0.46625 1 2 cbr 210 ------- 0 1.0 3.0 71 169
d 0.46625 1 2 cbr 210 ------- 0 1.0 3.0 71 169
+ 0.4675 0 2 cbr 210 ------- 0 0.0 3.0 98 170
d 0.4675 0 2 cbr 210 ------- 0 0.0 3.0 98 170
r 0.468 1 2 cbr 210 ------- 0 1.0 3.0 23 73
+ 0.468 2 3 cbr 210 ------- 0 1.0 3.0 23 73
- 0.4688 1 2 cbr 210 ------- 0 1.0 3.0 54 135
- 0.4688 2 3 cbr 210 ------- 0 0.0 3.0 27 28
r 0.4688 0 2 cbr 210 ------- 0 0.0 3.0 50 74
+ 0.4688 2 3 cbr 210 ------- 0 0.0 3.0 50 74
- 0.4696 0 2 cbr 210 ------- 0 0.0 3.0 81 136
r 0.4698 2 3 cbr 210 ------- 0 1.0 3.0 4 35
+ 0.47 1 2 cbr 210 ------- 0 1.0 3.0 72 171
+ 0.47125 0 2 cbr 210 ------- 0 0.0 3.0 99 172
+ 0.47375 1 2 cbr 210 ------- 0 1.0 3.0 73 173
d 0.47375 1 2 cbr 210 ------- 0 1.0 3.0 73 173
+ 0.475 0 2 cbr 210 ------- 0 0.0 3.0 100 174
d 0.475 0 2 cbr 210 ------- 0 0.0 3.0 100 174
+ 0.4775 1 2 cbr 210 ------- 0 1.0 3.0 74 175
d 0.4775 1 2 cbr 210 ------- 0 1.0 3.0 74 175
+ 0.47875 0 2 cbr 210 ------- 0 0.0 3.0 101 176
d 0.47875 0 2 cbr 210 ------- 0 0.0 3.0 101 176
+ 0.48125 1 2 cbr 210 ------- 0 1.0 3.0 75 177
d 0.48125 1 2 cbr 210 ------- 0 1.0 3.0 75 177
+ 0.4825 0 2 cbr 210 ------- 0 0.0 3.0 102 178
d 0.4825 0 2 cbr 210 ------- 0 0.0 3.0 102 178
r 0.4848 1 2 cbr 210 ------- 0 1.0 3.0 27 81
+ 0.4848 2 3 cbr 210 ------- 0 1.0 3.0 27 81
+ 0.485 1 2 cbr 210 ------- 0 1.0 3.0 76 179
d 0.485 1 2 cbr 210 ------- 0 1.0 3.0 76 179
- 0.4856 1 2 cbr 210 ------- 0 1.0 3.0 59 145
- 0.4856 2 3 cbr 210 ------- 0 1.0 3.0 5 37
r 0.4856 0 2 cbr 210 ------- 0 0.0 3.0 54 82
+ 0.4856 2 3 cbr 210 ------- 0 0.0 3.0 54 82
+ 0.48625 0 2 cbr 210 ------- 0 0.0 3.0 103 180
d 0.48625 0 2 cbr 210 ------- 0 0.0 3.0 103 180
- 0.4864 0 2 cbr 210 ------- 0 0.0 3.0 86 146
r 0.4866 2 3 cbr 210 ------- 0 0.0 3.0 27 28
+ 0.48875 1 2 cbr 210 ------- 0 1.0 3.0 77 181
+ 0.49 0 2 cbr 210 ------- 0 0.0 3.0 104 182
+ 0.4925 1 2 cbr 210 ------- 0 1.0 3.0 78 183
d 0.4925 1 2 cbr 210 ------- 0 1.0 3.0 78 183
+ 0.49375 0 2 cbr 210 ------- 0 0.0 3.0 105 184
d 0.49375 0 2 cbr 210 ------- 0 0.0 3.0 105 184
+ 0.49625 1 2 cbr 210 ------- 0 1.0 3.0 79 185
d 0.49625 1 2 cbr 210 ------- 0 1.0 3.0 79 185
+ 0.4975 0 2 cbr 210 ------- 0 0.0 3.0 106 186
d 0.4975 0 2 cbr 210 ------- 0 0.0 3.0 106 186
+ 0.5 1 2 cbr 210 ------- 0 1.0 3.0 80 187
d 0.5 1 2 cbr 210 ------- 0 1.0 3.0 80 187
+ 0.50125 0 2 cbr 210 ------- 0 0.0 3.0 107 188
d 0.50125 0 2 cbr 210 ------- 0 0.0 3.0 107 188
r 0.5016 1 2 cbr 210 ------- 0 1.0 3.0 32 91
+ 0.5016 2 3 cbr 210 ------- 0 1.0 3.0 32 91
- 0.5024 1 2 cbr 210 ------- 0 1.0 3.0 63 153
r 0.5024 0 2 cbr 210 ------- 0 0.0 3.0 59 92
+ 0.5024 2 3 cbr 210 ------- 0 0.0 3.0 59 92
- 0.5024 2 3 cbr 210 ------- 0 0.0 3.0 32 38
- 0.5032 0 2 cbr 210 ------- 0 0.0 3.0 90 154
r 0.5034 2 3 cbr 210 ------- 0 1.0 3.0 5 37
+ 0.50375 1 2 cbr 210 ------- 0 1.0 3.0 81 189
+ 0.505 0 2 cbr 210 ------- 0 0.0 3.0 108 190
+ 0.5075 1 2 cbr 210 ------- 0 1.0 3.0 82 191
d 0.5075 1 2 cbr 210 ------- 0 1.0 3.0 82 191
+ 0.50875 0 2 cbr 210 ------- 0 0.0 3.0 109 192
d 0.50875 0 2 cbr 210 ------- 0 0.0 3.0 109 192
+ 0.51125 1 2 cbr 210 ------- 0 1.0 3.0 83 193
d 0.51125 1 2 cbr 210 ------- 0 1.0 3.0 83 193
+ 0.5125 0 2 cbr 210 ------- 0 0.0 3.0 110 194
d 0.5125 0 2 cbr 210 ------- 0 0.0 3.0 110 194
+ 0.515 1 2 cbr 210 ------- 0 1.0 3.0 84 195
d 0.515 1 2 cbr 210 ------- 0 1.0 3.0 84 195
+ 0.51625 0 2 cbr 210 ------- 0 0.0 3.0 111 196
d 0.51625 0 2 cbr 210 ------- 0 0.0 3.0 111 196
r 0.5184 1 2 cbr 210 ------- 0 1.0 3.0 36 99
+ 0.5184 2 3 cbr 210 ------- 0 1.0 3.0 36 99
+ 0.51875 1 2 cbr 210 ------- 0 1.0 3.0 85 197
d 0.51875 1 2 cbr 210 ------- 0 1.0 3.0 85 197
- 0.5192 1 2 cbr 210 ------- 0 1.0 3.0 68 163
r 0.5192 0 2 cbr 210 ------- 0 0.0 3.0 63 100
+ 0.5192 2 3 cbr 210 ------- 0 0.0 3.0 63 100
- 0.5192 2 3 cbr 210 ------- 0 1.0 3.0 9 45
+ 0.52 0 2 cbr 210 ------- 0 0.0 3.0 112 198
d 0.52 0 2 cbr 210 ------- 0 0.0 3.0 112 198
- 0.52 0 2 cbr 210 ------- 0 0.0 3.0 95 164
r 0.5202 2 3 cbr 210 ------- 0 0.0 3.0 32 38
+ 0.5225 1 2 cbr 210 ------- 0 1.0 3.0 86 199
+ 0.52375 0 2 cbr 210 ------- 0 0.0 3.0 113 200
+ 0.52625 1 2 cbr 210 ------- 0 1.0 3.0 87 201
d 0.52625 1 2 cbr 210 ------- 0 1.0 3.0 87 201
+ 0.5275 0 2 cbr 210 ------- 0 0.0 3.0 114 202
d 0.5275 0 2 cbr 210 ------- 0 0.0 3.0 114 202
+ 0.53 1 2 cbr 210 ------- 0 1.0 3.0 88 203
d 0.53 1 2 cbr 210 ------- 0 1.0 3.0 88 203
+ 0.53125 0 2 cbr 210 ------- 0 0.0 3.0 115 204
d 0.53125 0 2 cbr 210 ------- 0 0.0 3.0 115 204
+ 0.53375 1 2 cbr 210 ------- 0 1.0 3.0 89 205
d 0.53375 1 2 cbr 210 ------- 0 1.0 3.0 89 205
+ 0.535 0 2 cbr 210 ------- 0 0.0 3.0 116 206
d 0.535 0 2 cbr 210 ------- 0 0.0 3.0 116 206
r 0.5352 1 2 cbr 210 ------- 0 1.0 3.0 41 109
+ 0.5352 2 3 cbr 210 ------- 0 1.0 3.0 41 109
r 0.536 0 2 cbr 210 ------- 0 0.0 3.0 68 110
+ 0.536 2 3 cbr 210 ------- 0 0.0 3.0 68 110
- 0.536 1 2 cbr 210 ------- 0 1.0 3.0 72 171
- 0.536 2 3 cbr 210 ------- 0 0.0 3.0 36 46
- 0.5368 0 2 cbr 210 ------- 0 0.0 3.0 99 172
r 0.537 2 3 cbr 210 ------- 0 1.0 3.0 9 45
+ 0.5375 1 2 cbr 210 ------- 0 1.0 3.0 90 207
+ 0.53875 0 2 cbr 210 ------- 0 0.0 3.0 117 208
+ 0.54125 1 2 cbr 210 ------- 0 1.0 3.0 91 209
d 0.54125 1 2 cbr 210 ------- 0 1.0 3.0 91 209
+ 0.5425 0 2 cbr 210 ------- 0 0.0 3.0 118 210
d 0.5425 0 2 cbr 210 ------- 0 0.0 3.0 118 210
+ 0.545 1 2 cbr 210 ------- 0 1.0 3.0 92 211
d 0.545 1 2 cbr 210 ------- 0 1.0 3.0 92 211
+ 0.54625 0 2 cbr 210 ------- 0 0.0 3.0 119 212
d 0.54625 0 2 cbr 210 ------- 0 0.0 3.0 119 212
+ 0.54875 1 2 cbr 210 ------- 0 1.0 3.0 93 213
d 0.54875 1 2 cbr 210 ------- 0 1.0 3.0 93 213
+ 0.55 0 2 cbr 210 ------- 0 0.0 3.0 120 214
d 0.55 0 2 cbr 210 ------- 0 0.0 3.0 120 214
r 0.552 1 2 cbr 210 ------- 0 1.0 3.0 45 117
+ 0.552 2 3 cbr 210 ------- 0 1.0 3.0 45 117
+ 0.5525 1 2 cbr 210 ------- 0 1.0 3.0 94 215
d 0.5525 1 2 cbr 210 ------- 0 1.0 3.0 94 215
r 0.5528 0 2 cbr 210 ------- 0 0.0 3.0 72 118
+ 0.5528 2 3 cbr 210 ------- 0 0.0 3.0 72 118
- 0.5528 1 2 cbr 210 ------- 0 1.0 3.0 77 181
- 0.5528 2 3 cbr 210 ------- 0 1.0 3.0 14 55
- 0.5536 0 2 cbr 210 ------- 0 0.0 3.0 104 182
+ 0.55375 0 2 cbr 210 ------- 0 0.0 3.0 121 216
r 0.5538 2 3 cbr 210 ------- 0 0.0 3.0 36 46
+ 0.55625 1 2 cbr 210 ------- 0 1.0 3.0 95 217
+ 0.5575 0 2 cbr 210 ------- 0 0.0 3.0 122 218
d 0.5575 0 2 cbr 210 ------- 0 0.0 3.0 122 218
+ 0.56 1 2 cbr 210 ------- 0 1.0 3.0 96 219
d 0.56 1 2 cbr 210 ------- 0 1.0 3.0 96 219
+ 0.56125 0 2 cbr 210 ------- 0 0.0 3.0 123 220
d 0.56125 0 2 cbr 210 ------- 0 0.0 3.0 123 220
+ 0.56375 1 2 cbr 210 ------- 0 1.0 3.0 97 221
d 0.56375 1 2 cbr 210 ------- 0 1.0 3.0 97 221
+ 0.565 0 2 cbr 210 ------- 0 0.0 3.0 124 222
d 0.565 0 2 cbr 210 ------- 0 0.0 3.0 124 222
+ 0.5675 1 2 cbr 210 ------- 0 1.0 3.0 98 223
d 0.5675 1 2 cbr 210 ------- 0 1.0 3.0 98 223
+ 0.56875 0 2 cbr 210 ------- 0 0.0 3.0 125 224
d 0.56875 0 2 cbr 210 ------- 0 0.0 3.0 125 224
r 0.5688 1 2 cbr 210 ------- 0 1.0 3.0 50 127
+ 0.5688 2 3 cbr 210 ------- 0 1.0 3.0 50 127
r 0.5696 0 2 cbr 210 ------- 0 0.0 3.0 77 128
+ 0.5696 2 3 cbr 210 ------- 0 0.0 3.0 77 128
- 0.5696 1 2 cbr 210 ------- 0 1.0 3.0 81 189
- 0.5696 2 3 cbr 210 ------- 0 0.0 3.0 41 56
- 0.5704 0 2 cbr 210 ------- 0 0.0 3.0 108 190
r 0.5706 2 3 cbr 210 ------- 0 1.0 3.0 14 55
+ 0.57125 1 2 cbr 210 ------- 0 1.0 3.0 99 225
+ 0.5725 0 2 cbr 210 ------- 0 0.0 3.0 126 226
+ 0.575 1 2 cbr 210 ------- 0 1.0 3.0 100 227
d 0.575 1 2 cbr 210 ------- 0 1.0 3.0 100 227
+ 0.57625 0 2 cbr 210 ------- 0 0.0 3.0 127 228
d 0.57625 0 2 cbr 210 ------- 0 0.0 3.0 127 228
+ 0.57875 1 2 cbr 210 ------- 0 1.0 3.0 101 229
d 0.57875 1 2 cbr 210 ------- 0 1.0 3.0 101 229
+ 0.58 0 2 cbr 210 ------- 0 0.0 3.0 128 230
d 0.58 0 2 cbr 210 ------- 0 0.0 3.0 128 230
+ 0.5825 1 2 cbr 210 ------- 0 1.0 3.0 102 231
d 0.5825 1 2 cbr 210 ------- 0 1.0 3.0 102 231
+ 0.58375 0 2 cbr 210 ------- 0 0.0 3.0 129 232
d 0.58375 0 2 cbr 210 ------- 0 0.0 3.0 129 232
r 0.5856 1 2 cbr 210 ------- 0 1.0 3.0 54 135
+ 0.5856 2 3 cbr 210 ------- 0 1.0 3.0 54 135
+ 0.58625 1 2 cbr 210 ------- 0 1.0 3.0 103 233
d 0.58625 1 2 cbr 210 ------- 0 1.0 3.0 103 233
r 0.5864 0 2 cbr 210 ------- 0 0.0 3.0 81 136
+ 0.5864 2 3 cbr 210 ------- 0 0.0 3.0 81 136
- 0.5864 1 2 cbr 210 ------- 0 1.0 3.0 86 199
- 0.5864 2 3 cbr 210 ------- 0 1.0 3.0 18 63
- 0.5872 0 2 cbr 210 ------- 0 0.0 3.0 113 200
r 0.5874 2 3 cbr 210 ------- 0 0.0 3.0 41 56
+ 0.5875 0 2 cbr 210 ------- 0 0.0 3.0 130 234
+ 0.59 1 2 cbr 210 ------- 0 1.0 3.0 104 235
+ 0.59125 0 2 cbr 210 ------- 0 0.0 3.0 131 236
d 0.59125 0 2 cbr 210 ------- 0 0.0 3.0 131 236
+ 0.59375 1 2 cbr 210 ------- 0 1.0 3.0 105 237
d 0.59375 1 2 cbr 210 ------- 0 1.0 3.0 105 237
+ 0.595 0 2 cbr 210 ------- 0 0.0 3.0 132 238
d 0.595 0 2 cbr 210 ------- 0 0.0 3.0 132 238
+ 0.5975 1 2 cbr 210 ------- 0 1.0 3.0 106 239
d 0.5975 1 2 cbr 210 ------- 0 1.0 3.0 106 239
+ 0.59875 0 2 cbr 210 ------- 0 0.0 3.0 133 240
d 0.59875 0 2 cbr 210 ------- 0 0.0 3.0 133 240
+ 0.60125 1 2 cbr 210 ------- 0 1.0 3.0 107 241
d 0.60125 1 2 cbr 210 ------- 0 1.0 3.0 107 241
r 0.6024 1 2 cbr 210 ------- 0 1.0 3.0 59 145
+ 0.6024 2 3 cbr 210 ------- 0 1.0 3.0 59 145
+ 0.6025 0 2 cbr 210 ------- 0 0.0 3.0 134 242
d 0.6025 0 2 cbr 210 ------- 0 0.0 3.0 134 242
r 0.6032 0 2 cbr 210 ------- 0 0.0 3.0 86 146
+ 0.6032 2 3 cbr 210 ------- 0 0.0 3.0 86 146
- 0.6032 1 2 cbr 210 ------- 0 1.0 3.0 90 207
- 0.6032 2 3 cbr 210 ------- 0 0.0 3.0 45 64
- 0.604 0 2 cbr 210 ------- 0 0.0 3.0 117 208
r 0.6042 2 3 cbr 210 ------- 0 1.0 3.0 18 63
+ 0.605 1 2 cbr 210 ------- 0 1.0 3.0 108 243
+ 0.60625 0 2 cbr 210 ------- 0 0.0 3.0 135 244
+ 0.60875 1 2 cbr 210 ------- 0 1.0 3.0 109 245
d 0.60875 1 2 cbr 210 ------- 0 1.0 3.0 109 245
+ 0.61 0 2 cbr 210 ------- 0 0.0 3.0 136 246
d 0.61 0 2 cbr 210 ------- 0 0.0 3.0 136 246
+ 0.6125 1 2 cbr 210 ------- 0 1.0 3.0 110 247
d 0.6125 1 2 cbr 210 ------- 0 1.0 3.0 110 247
+ 0.61375 0 2 cbr 210 ------- 0 0.0 3.0 137 248
d 0.61375 0 2 cbr 210 ------- 0 0.0 3.0 137 248
+ 0.61625 1 2 cbr 210 ------- 0 1.0 3.0 111 249
d 0.61625 1 2 cbr 210 ------- 0 1.0 3.0 111 249
+ 0.6175 0 2 cbr 210 ------- 0 0.0 3.0 138 250
d 0.6175 0 2 cbr 210 ------- 0 0.0 3.0 138 250
r 0.6192 1 2 cbr 210 ------- 0 1.0 3.0 63 153
+ 0.6192 2 3 cbr 210 ------- 0 1.0 3.0 63 153
+ 0.62 1 2 cbr 210 ------- 0 1.0 3.0 112 251
d 0.62 1 2 cbr 210 ------- 0 1.0 3.0 112 251
r 0.62 0 2 cbr 210 ------- 0 0.0 3.0 90 154
+ 0.62 2 3 cbr 210 ------- 0 0.0 3.0 90 154
- 0.62 1 2 cbr 210 ------- 0 1.0 3.0 95 217
- 0.62 2 3 cbr 210 ------- 0 1.0 3.0 23 73
- 0.6208 0 2 cbr 210 ------- 0 0.0 3.0 121 216
r 0.621 2 3 cbr 210 ------- 0 0.0 3.0 45 64
+ 0.62125 0 2 cbr 210 ------- 0 0.0 3.0 139 252
+ 0.62375 1 2 cbr 210 ------- 0 1.0 3.0 113 253
+ 0.625 0 2 cbr 210 ------- 0 0.0 3.0 140 254
d 0.625 0 2 cbr 210 ------- 0 0.0 3.0 140 254
+ 0.6275 1 2 cbr 210 ------- 0 1.0 3.0 114 255
d 0.6275 1 2 cbr 210 ------- 0 1.0 3.0 114 255
+ 0.62875 0 2 cbr 210 ------- 0 0.0 3.0 141 256
d 0.62875 0 2 cbr 210 ------- 0 0.0 3.0 141 256
+ 0.63125 1 2 cbr 210 ------- 0 1.0 3.0 115 257
d 0.63125 1 2 cbr 210 ------- 0 1.0 3.0 115 257
+ 0.6325 0 2 cbr 210 ------- 0 0.0 3.0 142 258
d 0.6325 0 2 cbr 210 ------- 0 0.0 3.0 142 258
+ 0.635 1 2 cbr 210 ------- 0 1.0 3.0 116 259
d 0.635 1 2 cbr 210 ------- 0 1.0 3.0 116 259
r 0.636 1 2 cbr 210 ------- 0 1.0 3.0 68 163
+ 0.636 2 3 cbr 210 ------- 0 1.0 3.0 68 163
+ 0.63625 0 2 cbr 210 ------- 0 0.0 3.0 143 260
d 0.63625 0 2 cbr 210 ------- 0 0.0 3.0 143 260
r 0.6368 0 2 cbr 210 ------- 0 0.0 3.0 95 164
+ 0.6368 2 3 cbr 210 ------- 0 0.0 3.0 95 164
- 0.6368 1 2 cbr 210 ------- 0 1.0 3.0 99 225
- 0.6368 2 3 cbr 210 ------- 0 0.0 3.0 50 74
- 0.6376 0 2 cbr 210 ------- 0 0.0 3.0 126 226
r 0.6378 2 3 cbr 210 ------- 0 1.0 3.0 23 73