V -t * -v 1.0a5 -a 0
A -t * -n 1 -p 0 -o 0x7fffffff -c 30 -a 1
A -t * -h 1 -m 1073741823 -s 0
n -t * -a 0 -s 0 -S UP -v circle -c black -i black
n -t * -a 1 -s 1 -S UP -v circle -c black -i black
n -t * -a 2 -s 2 -S UP -v circle -c black -i black
n -t * -a 3 -s 3 -S UP -v circle -c black -i black
l -t * -s 0 -d 2 -S UP -r 100000 -D 0.10000000000000001 -c black
l -t * -s 1 -d 2 -S UP -r 100000 -D 0.10000000000000001 -c black
l -t * -s 2 -d 3 -S UP -r 100000 -D 0.001 -c black
+ -t 0.1 -s 0 -d 2 -p cbr -e 210 -c 0 -i 0 -a 0 -x {0.0 3.0 0 ------- null}
- -t 0.1 -s 0 -d 2 -p cbr -e 210 -c 0 -i 0 -a 0 -x {0.0 3.0 0 ------- null}
h -t 0.1 -s 0 -d 2 -p cbr -e 210 -c 0 -i 0 -a 0 -x {0.0 3.0 -1 ------- null}
+ -t 0.10375 -s 0 -d 2 -p cbr -e 210 -c 0 -i 1 -a 0 -x {0.0 3.0 1 ------- null}
+ -t 0.1075 -s 0 -d 2 -p cbr -e 210 -c 0 -i 2 -a 0 -x {0.0 3.0 2 ------- null}
+ -t 0.11125 -s 0 -d 2 -p cbr -e 210 -c 0 -i 3 -a 0 -x {0.0 3.0 3 ------- null}
+ -t 0.115 -s 0 -d 2 -p cbr -e 210 -c 0 -i 4 -a 0 -x {0.0 3.0 4 ------- null}
- -t 0.1168 -s 0 -d 2 -p cbr -e 210 -c 0 -i 1 -a 0 -x {0.0 3.0 1 ------- null}
h -t 0.1168 -s 0 -d 2 -p cbr -e 210 -c 0 -i 1 -a 0 -x {0.0 3.0 -1 ------- null}
+ -t 0.11875 -s 0 -d 2 -p cbr -e 210 -c 0 -i 5 -a 0 -x {0.0 3.0 5 ------- null}
+ -t 0.1225 -s 0 -d 2 -p cbr -e 210 -c 0 -i 6 -a 0 -x {0.0 3.0 6 ------- null}
d -t 0.1225 -s 0 -d 2 -p cbr -e 210 -c 0 -i 6 -a 0 -x {0.0 3.0 6 ------- null}
+ -t 0.12625 -s 0 -d 2 -p cbr -e 210 -c 0 -i 7 -a 0 -x {0.0 3.0 7 ------- null}
d -t 0.12625 -s 0 -d 2 -p cbr -e 210 -c 0 -i 7 -a 0 -x {0.0 3.0 7 ------- null}
+ -t 0.13 -s 0 -d 2 -p cbr -e 210 -c 0 -i 8 -a 0 -x {0.0 3.0 8 ------- null}
d -t 0.13 -s 0 -d 2 -p cbr -e 210 -c 0 -i 8 -a 0 -x {0.0 3.0 8 ------- null}
- -t 0.1336 -s 0 -d 2 -p cbr -e 210 -c 0 -i 2 -a 0 -x {0.0 3.0 2 ------- null}
h -t 0.1336 -s 0 -d 2 -p cbr -e 210 -c 0 -i 2 -a 0 -x {0.0 3.0 -1 ------- null}
+ -t 0.13375 -s 0 -d 2 -p cbr -e 210 -c 0 -i 9 -a 0 -x {0.0 3.0 9 ------- null}
+ -t 0.1375 -s 0 -d 2 -p cbr -e 210 -c 0 -i 10 -a 0 -x {0.0 3.0 10 ------- null}
d -t 0.1375 -s 0 -d 2 -p cbr -e 210 -c 0 -i 10 -a 0 -x {0.0 3.0 10 ------- null}
+ -t 0.14125 -s 0 -d 2 -p cbr -e 210 -c 0 -i 11 -a 0 -x {0.0 3.0 11 ------- null}
d -t 0.14125 -s 0 -d 2 -p cbr -e 210 -c 0 -i 11 -a 0 -x {0.0 3.0 11 ------- null}
+ -t 0.145 -s 0 -d 2 -p cbr -e 210 -c 0 -i 12 -a 0 -x {0.0 3.0 12 ------- null}
d -t 0.145 -s 0 -d 2 -p cbr -e 210 -c 0 -i 12 -a 0 -x {0.0 3.0 12 ------- null}
+ -t 0.14875 -s 0 -d 2 -p cbr -e 210 -c 0 -i 13 -a 0 -x {0.0 3.0 13 ------- null}
d -t 0.14875 -s 0 -d 2 -p cbr -e 210 -c 0 -i 13 -a 0 -x {0.0 3.0 13 ------- null}
- -t 0.1504 -s 0 -d 2 -p cbr -e 210 -c 0 -i 3 -a 0 -x {0.0 3.0 3 ------- null}
h -t 0.1504 -s 0 -d 2 -p cbr -e 210 -c 0 -i 3 -a 0 -x {0.0 3.0 -1 ------- null}
+ -t 0.1525 -s 0 -d 2 -p cbr -e 210 -c 0 -i 14 -a 0 -x {0.0 3.0 14 ------- null}
+ -t 0.15625 -s 0 -d 2 -p cbr -e 210 -c 0 -i 15 -a 0 -x {0.0 3.0 15 ------- null}
d -t 0.15625 -s 0 -d 2 -p cbr -e 210 -c 0 -i 15 -a 0 -x {0.0 3.0 15 ------- null}
+ -t 0.16 -s 0 -d 2 -p cbr -e 210 -c 0 -i 16 -a 0 -x {0.0 3.0 16 ------- null}
d -t 0.16 -s 0 -d 2 -p cbr -e 210 -c 0 -i 16 -a 0 -x {0.0 3.0 16 ------- null}
+ -t 0.16375 -s 0 -d 2 -p cbr -e 210 -c 0 -i 17 -a 0 -x {0.0 3.0 17 ------- null}
d -t 0.16375 -s 0 -d 2 -p cbr -e 210 -c 0 -i 17 -a 0 -x {0.0 3.0 17 ------- null}
- -t 0.1672 -s 0 -d 2 -p cbr -e 210 -c 0 -i 4 -a 0 -x {0.0 3.0 4 ------- null}
h -t 0.1672 -s 0 -d 2 -p cbr -e 210 -c 0 -i 4 -a 0 -x {0.0 3.0 -1 ------- null}
+ -t 0.1675 -s 0 -d 2 -p cbr -e 210 -c 0 -i 18 -a 0 -x {0.0 3.0 18 ------- null}
+ -t 0.17125 -s 0 -d 2 -p cbr -e 210 -c 0 -i 19 -a 0 -x {0.0 3.0 19 ------- null}
d -t 0.17125 -s 0 -d 2 -p cbr -e 210 -c 0 -i 19 -a 0 -x {0.0 3.0 19 ------- null}
+ -t 0.175 -s 0 -d 2 -p cbr -e 210 -c 0 -i 20 -a 0 -x {0.0 3.0 20 ------- null}
d -t 0.175 -s 0 -d 2 -p cbr -e 210 -c 0 -i 20 -a 0 -x {0.0 3.0 20 ------- null}
+ -t 0.17875 -s 0 -d 2 -p cbr -e 210 -c 0 -i 21 -a 0 -x {0.0 3.0 21 ------- null}
d -t 0.17875 -s 0 -d 2 -p cbr -e 210 -c 0 -i 21 -a 0 -x {0.0 3.0 21 ------- null}
+ -t 0.1825 -s 0 -d 2 -p cbr -e 210 -c 0 -i 22 -a 0 -x {0.0 3.0 22 ------- null}
d -t 0.1825 -s 0 -d 2 -p cbr -e 210 -c 0 -i 22 -a 0 -x {0.0 3.0 22 ------- null}
- -t 0.184 -s 0 -d 2 -p cbr -e 210 -c 0 -i 5 -a 0 -x {0.0 3.0 5 ------- null}
h -t 0.184 -s 0 -d 2 -p cbr -e 210 -c 0 -i 5 -a 0 -x {0.0 3.0 -1 ------- null}
+ -t 0.18625 -s 0 -d 2 -p cbr -e 210 -c 0 -i 23 -a 0 -x {0.0 3.0 23 ------- null}
+ -t 0.19 -s 0 -d 2 -p cbr -e 210 -c 0 -i 24 -a 0 -x {0.0 3.0 24 ------- null}
d -t 0.19 -s 0 -d 2 -p cbr -e 210 -c 0 -i 24 -a 0 -x {0.0 3.0 24 ------- null}
+ -t 0.19375 -s 0 -d 2 -p cbr -e 210 -c 0 -i 25 -a 0 -x {0.0 3.0 25 ------- null}
d -t 0.19375 -s 0 -d 2 -p cbr -e 210 -c 0 -i 25 -a 0 -x {0.0 3.0 25 ------- null}
+ -t 0.1975 -s 0 -d 2 -p cbr -e 210 -c 0 -i 26 -a 0 -x {0.0 3.0 26 ------- null}
d -t 0.1975 -s 0 -d 2 -p cbr -e 210 -c 0 -i 26 -a 0 -x {0.0 3.0 26 ------- null}
+ -t 0.2 -s 1 -d 2 -p cbr -e 210 -c 0 -i 27 -a 0 -x {1.0 3.0 0 ------- null}
- -t 0.2 -s 1 -d 2 -p cbr -e 210 -c 0 -i 27 -a 0 -x {1.0 3.0 0 ------- null}
h -t 0.2 -s 1 -d 2 -p cbr -e 210 -c 0 -i 27 -a 0 -x {1.0 3.0 -1 ------- null}
- -t 0.2008 -s 0 -d 2 -p cbr -e 210 -c 0 -i 9 -a 0 -x {0.0 3.0 9 ------- null}
h -t 0.2008 -s 0 -d 2 -p cbr -e 210 -c 0 -i 9 -a 0 -x {0.0 3.0 -1 ------- null}
+ -t 0.20125 -s 0 -d 2 -p cbr -e 210 -c 0 -i 28 -a 0 -x {0.0 3.0 27 ------- null}
+ -t 0.20375 -s 1 -d 2 -p cbr -e 210 -c 0 -i 29 -a 0 -x {1.0 3.0 1 ------- null}
+ -t 0.205 -s 0 -d 2 -p cbr -e 210 -c 0 -i 30 -a 0 -x {0.0 3.0 28 ------- null}
d -t 0.205 -s 0 -d 2 -p cbr -e 210 -c 0 -i 30 -a 0 -x {0.0 3.0 28 ------- null}
+ -t 0.2075 -s 1 -d 2 -p cbr -e 210 -c 0 -i 31 -a 0 -x {1.0 3.0 2 ------- null}
+ -t 0.20875 -s 0 -d 2 -p cbr -e 210 -c 0 -i 32 -a 0 -x {0.0 3.0 29 ------- null}
d -t 0.20875 -s 0 -d 2 -p cbr -e 210 -c 0 -i 32 -a 0 -x {0.0 3.0 29 ------- null}
+ -t 0.21125 -s 1 -d 2 -p cbr -e 210 -c 0 -i 33 -a 0 -x {1.0 3.0 3 ------- null}
+ -t 0.2125 -s 0 -d 2 -p cbr -e 210 -c 0 -i 34 -a 0 -x {0.0 3.0 30 ------- null}
d -t 0.2125 -s 0 -d 2 -p cbr -e 210 -c 0 -i 34 -a 0 -x {0.0 3.0 30 ------- null}
+ -t 0.215 -s 1 -d 2 -p cbr -e 210 -c 0 -i 35 -a 0 -x {1.0 3.0 4 ------- null}
+ -t 0.21625 -s 0 -d 2 -p cbr -e 210 -c 0 -i 36 -a 0 -x {0.0 3.0 31 ------- null}
d -t 0.21625 -s 0 -d 2 -p cbr -e 210 -c 0 -i 36 -a 0 -x {0.0 3.0 31 ------- null}
r -t 0.2168 -s 0 -d 2 -p cbr -e 210 -c 0 -i 0 -a 0 -x {0.0 3.0 0 ------- null}
+ -t 0.2168 -s 2 -d 3 -p cbr -e 210 -c 0 -i 0 -a 0 -x {0.0 3.0 0 ------- null}
- -t 0.2168 -s 2 -d 3 -p cbr -e 210 -c 0 -i 0 -a 0 -x {0.0 3.0 0 ------- null}
h -t 0.2168 -s 2 -d 3 -p cbr -e 210 -c 0 -i 0 -a 0 -x {0.0 3.0 -1 ------- null}
- -t 0.2168 -s 1 -d 2 -p cbr -e 210 -c 0 -i 29 -a 0 -x {1.0 3.0 1 ------- null}
h -t 0.2168 -s 1 -d 2 -p cbr -e 210 -c 0 -i 29 -a 0 -x {1.0 3.0 -1 ------- null}
- -t 0.2176 -s 0 -d 2 -p cbr -e 210 -c 0 -i 14 -a 0 -x {0.0 3.0 14 ------- null}
h -t 0.2176 -s 0 -d 2 -p cbr -e 210 -c 0 -i 14 -a 0 -x {0.0 3.0 -1 ------- null}
+ -t 0.21875 -s 1 -d 2 -p cbr -e 210 -c 0 -i 37 -a 0 -x {1.0 3.0 5 ------- null}
+ -t 0.22 -s 0 -d 2 -p cbr -e 210 -c 0 -i 38 -a 0 -x {0.0 3.0 32 ------- null}
+ -t 0.2225 -s 1 -d 2 -p cbr -e 210 -c 0 -i 39 -a 0 -x {1.0 3.0 6 ------- null}
d -t 0.2225 -s 1 -d 2 -p cbr -e 210 -c 0 -i 39 -a 0 -x {1.0 3.0 6 ------- null}
+ -t 0.22375 -s 0 -d 2 -p cbr -e 210 -c 0 -i 40 -a 0 -x {0.0 3.0 33 ------- null}
d -t 0.22375 -s 0 -d 2 -p cbr -e 210 -c 0 -i 40 -a 0 -x {0.0 3.0 33 ------- null}
+ -t 0.22625 -s 1 -d 2 -p cbr -e 210 -c 0 -i 41 -a 0 -x {1.0 3.0 7 ------- null}
d -t 0.22625 -s 1 -d 2 -p cbr -e 210 -c 0 -i 41 -a 0 -x {1.0 3.0 7 ------- null}
+ -t 0.2275 -s 0 -d 2 -p cbr -e 210 -c 0 -i 42 -a 0 -x {0.0 3.0 34 ------- null}
d -t 0.2275 -s 0 -d 2 -p cbr -e 210 -c 0 -i 42 -a 0 -x {0.0 3.0 34 ------- null}
+ -t 0.23 -s 1 -d 2 -p cbr -e 210 -c 0 -i 43 -a 0 -x {1.0 3.0 8 ------- null}
d -t 0.23 -s 1 -d 2 -p cbr -e 210 -c 0 -i 43 -a 0 -x {1.0 3.0 8 ------- null}
+ -t 0.23125 -s 0 -d 2 -p cbr -e 210 -c 0 -i 44 -a 0 -x {0.0 3.0 35 ------- null}
d -t 0.23125 -s 0 -d 2 -p cbr -e 210 -c 0 -i 44 -a 0 -x {0.0 3.0 35 ------- null}
r -t 0.2336 -s 0 -d 2 -p cbr -e 210 -c 0 -i 1 -a 0 -x {0.0 3.0 1 ------- null}
+ -t 0.2336 -s 2 -d 3 -p cbr -e 210 -c 0 -i 1 -a 0 -x {0.0 3.0 1 ------- null}
- -t 0.2336 -s 2 -d 3 -p cbr -e 210 -c 0 -i 1 -a 0 -x {0.0 3.0 1 ------- null}
h -t 0.2336 -s 2 -d 3 -p cbr -e 210 -c 0 -i 1 -a 0 -x {0.0 3.0 -1 ------- null}
- -t 0.2336 -s 1 -d 2 -p cbr -e 210 -c 0 -i 31 -a 0 -x {1.0 3.0 2 ------- null}
h -t 0.2336 -s 1 -d 2 -p cbr -e 210 -c 0 -i 31 -a 0 -x {1.0 3.0 -1 ------- null}
+ -t 0.23375 -s 1 -d 2 -p cbr -e 210 -c 0 -i 45 -a 0 -x {1.0 3.0 9 ------- null}
- -t 0.2344 -s 0 -d 2 -p cbr -e 210 -c 0 -i 18 -a 0 -x {0.0 3.0 18 ------- null}
h -t 0.2344 -s 0 -d 2 -p cbr -e 210 -c 0 -i 18 -a 0 -x {0.0 3.0 -1 ------- null}
r -t 0.2346 -s 2 -d 3 -p cbr -e 210 -c 0 -i 0 -a 0 -x {0.0 3.0 0 ------- null}
+ -t 0.235 -s 0 -d 2 -p cbr -e 210 -c 0 -i 46 -a 0 -x {0.0 3.0 36 ------- null}
+ -t 0.2375 -s 1 -d 2 -p cbr -e 210 -c 0 -i 47 -a 0 -x {1.0 3.0 10 ------- null}
d -t 0.2375 -s 1 -d 2 -p cbr -e 210 -c 0 -i 47 -a 0 -x {1.0 3.0 10 ------- null}
+ -t 0.23875 -s 0 -d 2 -p cbr -e 210 -c 0 -i 48 -a 0 -x {0.0 3.0 37 ------- null}
d -t 0.23875 -s 0 -d 2 -p cbr -e 210 -c 0 -i 48 -a 0 -x {0.0 3.0 37 ------- null}
+ -t 0.24125 -s 1 -d 2 -p cbr -e 210 -c 0 -i 49 -a 0 -x {1.0 3.0 11 ------- null}
d -t 0.24125 -s 1 -d 2 -p cbr -e 210 -c 0 -i 49 -a 0 -x {1.0 3.0 11 ------- null}
+ -t 0.2425 -s 0 -d 2 -p cbr -e 210 -c 0 -i 50 -a 0 -x {0.0 3.0 38 ------- null}
d -t 0.2425 -s 0 -d 2 -p cbr -e 210 -c 0 -i 50 -a 0 -x {0.0 3.0 38 ------- null}
+ -t 0.245 -s 1 -d 2 -p cbr -e 210 -c 0 -i 51 -a 0 -x {1.0 3.0 12 ------- null}
d -t 0.245 -s 1 -d 2 -p cbr -e 210 -c 0 -i 51 -a 0 -x {1.0 3.0 12 ------- null}
+ -t 0.24625 -s 0 -d 2 -p cbr -e 210 -c 0 -i 52 -a 0 -x {0.0 3.0 39 ------- null}
d -t 0.24625 -s 0 -d 2 -p cbr -e 210 -c 0 -i 52 -a 0 -x {0.0 3.0 39 ------- null}
+ -t 0.24875 -s 1 -d 2 -p cbr -e 210 -c 0 -i 53 -a 0 -x {1.0 3.0 13 ------- null}
d -t 0.24875 -s 1 -d 2 -p cbr -e 210 -c 0 -i 53 -a 0 -x {1.0 3.0 13 ------- null}
+ -t 0.25 -s 0 -d 2 -p cbr -e 210 -c 0 -i 54 -a 0 -x {0.0 3.0 40 ------- null}
d -t 0.25 -s 0 -d 2 -p cbr -e 210 -c 0 -i 54 -a 0 -x {0.0 3.0 40 ------- null}
r -t 0.2504 -s 0 -d 2 -p cbr -e 210 -c 0 -i 2 -a 0 -x {0.0 3.0 2 ------- null}
+ -t 0.2504 -s 2 -d 3 -p cbr -e 210 -c 0 -i 2 -a 0 -x {0.0 3.0 2 ------- null}
- -t 0.2504 -s 2 -d 3 -p cbr -e 210 -c 0 -i 2 -a 0 -x {0.0 3.0 2 ------- null}
h -t 0.2504 -s 2 -d 3 -p cbr -e 210 -c 0 -i 2 -a 0 -x {0.0 3.0 -1 ------- null}
- -t 0.2504 -s 1 -d 2 -p cbr -e 210 -c 0 -i 33 -a 0 -x {1.0 3.0 3 ------- null}
h -t 0.2504 -s 1 -d 2 -p cbr -e 210 -c 0 -i 33 -a 0 -x {1.0 3.0 -1 ------- null}
- -t 0.2512 -s 0 -d 2 -p cbr -e 210 -c 0 -i 23 -a 0 -x {0.0 3.0 23 ------- null}
h -t 0.2512 -s 0 -d 2 -p cbr -e 210 -c 0 -i 23 -a 0 -x {0.0 3.0 -1 ------- null}
r -t 0.2514 -s 2 -d 3 -p cbr -e 210 -c 0 -i 1 -a 0 -x {0.0 3.0 1 ------- null}
+ -t 0.2525 -s 1 -d 2 -p cbr -e 210 -c 0 -i 55 -a 0 -x {1.0 3.0 14 ------- null}
+ -t 0.25375 -s 0 -d 2 -p cbr -e 210 -c 0 -i 56 -a 0 -x {0.0 3.0 41 ------- null}
+ -t 0.25625 -s 1 -d 2 -p cbr -e 210 -c 0 -i 57 -a 0 -x {1.0 3.0 15 ------- null}
d -t 0.25625 -s 1 -d 2 -p cbr -e 210 -c 0 -i 57 -a 0 -x {1.0 3.0 15 ------- null}
+ -t 0.2575 -s 0 -d 2 -p cbr -e 210 -c 0 -i 58 -a 0 -x {0.0 3.0 42 ------- null}
d -t 0.2575 -s 0 -d 2 -p cbr -e 210 -c 0 -i 58 -a 0 -x {0.0 3.0 42 ------- null}
+ -t 0.26 -s 1 -d 2 -p cbr -e 210 -c 0 -i 59 -a 0 -x {1.0 3.0 16 ------- null}
d -t 0.26 -s 1 -d 2 -p cbr -e 210 -c 0 -i 59 -a 0 -x {1.0 3.0 16 ------- null}
+ -t 0.26125 -s 0 -d 2 -p cbr -e 210 -c 0 -i 60 -a 0 -x {0.0 3.0 43 ------- null}
d -t 0.26125 -s 0 -d 2 -p cbr -e 210 -c 0 -i 60 -a 0 -x {0.0 3.0 43 ------- null}
+ -t 0.26375 -s 1 -d 2 -p cbr -e 210 -c 0 -i 61 -a 0 -x {1.0 3.0 17 ------- null}
d -t 0.26375 -s 1 -d 2 -p cbr -e 210 -c 0 -i 61 -a 0 -x {1.0 3.0 17 ------- null}
+ -t 0.265 -s 0 -d 2 -p cbr -e 210 -c 0 -i 62 -a 0 -x {0.0 3.0 44 ------- null}
d -t 0.265 -s 0 -d 2 -p cbr -e 210 -c 0 -i 62 -a 0 -x {0.0 3.0 44 ------- null}
r -t 0.2672 -s 0 -d 2 -p cbr -e 210 -c 0 -i 3 -a 0 -x {0.0 3.0 3 ------- null}
+ -t 0.2672 -s 2 -d 3 -p cbr -e 210 -c 0 -i 3 -a 0 -x {0.0 3.0 3 ------- null}
- -t 0.2672 -s 2 -d 3 -p cbr -e 210 -c 0 -i 3 -a 0 -x {0.0 3.0 3 ------- null}
h -t 0.2672 -s 2 -d 3 -p cbr -e 210 -c 0 -i 3 -a 0 -x {0.0 3.0 -1 ------- null}
- -t 0.2672 -s 1 -d 2 -p cbr -e 210 -c 0 -i 35 -a 0 -x {1.0 3.0 4 ------- null}
h -t 0.2672 -s 1 -d 2 -p cbr -e 210 -c 0 -i 35 -a 0 -x {1.0 3.0 -1 ------- null}
+ -t 0.2675 -s 1 -d 2 -p cbr -e 210 -c 0 -i 63 -a 0 -x {1.0 3.0 18 ------- null}
- -t 0.268 -s 0 -d 2 -p cbr -e 210 -c 0 -i 28 -a 0 -x {0.0 3.0 27 ------- null}
h -t 0.268 -s 0 -d 2 -p cbr -e 210 -c 0 -i 28 -a 0 -x {0.0 3.0 -1 ------- null}
r -t 0.2682 -s 2 -d 3 -p cbr -e 210 -c 0 -i 2 -a 0 -x {0.0 3.0 2 ------- null}
+ -t 0.26875 -s 0 -d 2 -p cbr -e 210 -c 0 -i 64 -a 0 -x {0.0 3.0 45 ------- null}
+ -t 0.27125 -s 1 -d 2 -p cbr -e 210 -c 0 -i 65 -a 0 -x {1.0 3.0 19 ------- null}
d -t 0.27125 -s 1 -d 2 -p cbr -e 210 -c 0 -i 65 -a 0 -x {1.0 3.0 19 ------- null}
+ -t 0.2725 -s 0 -d 2 -p cbr -e 210 -c 0 -i 66 -a 0 -x {0.0 3.0 46 ------- null}
d -t 0.2725 -s 0 -d 2 -p cbr -e 210 -c 0 -i 66 -a 0 -x {0.0 3.0 46 ------- null}
+ -t 0.275 -s 1 -d 2 -p cbr -e 210 -c 0 -i 67 -a 0 -x {1.0 3.0 20 ------- null}
d -t 0.275 -s 1 -d 2 -p cbr -e 210 -c 0 -i 67 -a 0 -x {1.0 3.0 20 ------- null}
+ -t 0.27625 -s 0 -d 2 -p cbr -e 210 -c 0 -i 68 -a 0 -x {0.0 3.0 47 ------- null}
d -t 0.27625 -s 0 -d 2 -p cbr -e 210 -c 0 -i 68 -a 0 -x {0.0 3.0 47 ------- null}
+ -t 0.27875 -s 1 -d 2 -p cbr -e 210 -c 0 -i 69 -a 0 -x {1.0 3.0 21 ------- null}
d -t 0.27875 -s 1 -d 2 -p cbr -e 210 -c 0 -i 69 -a 0 -x {1.0 3.0 21 ------- null}
+ -t 0.28 -s 0 -d 2 -p cbr -e 210 -c 0 -i 70 -a 0 -x {0.0 3.0 48 ------- null}
d -t 0.28 -s 0 -d 2 -p cbr -e 210 -c 0 -i 70 -a 0 -x {0.0 3.0 48 ------- null}
+ -t 0.2825 -s 1 -d 2 -p cbr -e 210 -c 0 -i 71 -a 0 -x {1.0 3.0 22 ------- null}
d -t 0.2825 -s 1 -d 2 -p cbr -e 210 -c 0 -i 71 -a 0 -x {1.0 3.0 22 ------- null}
+ -t 0.28375 -s 0 -d 2 -p cbr -e 210 -c 0 -i 72 -a 0 -x {0.0 3.0 49 ------- null}
d -t 0.28375 -s 0 -d 2 -p cbr -e 210 -c 0 -i 72 -a 0 -x {0.0 3.0 49 ------- null}
- -t 0.284 -s 1 -d 2 -p cbr -e 210 -c 0 -i 37 -a 0 -x {1.0 3.0 5 ------- null}
h -t 0.284 -s 1 -d 2 -p cbr -e 210 -c 0 -i 37 -a 0 -x {1.0 3.0 -1 ------- null}
r -t 0.284 -s 0 -d 2 -p cbr -e 210 -c 0 -i 4 -a 0 -x {0.0 3.0 4 ------- null}
+ -t 0.284 -s 2 -d 3 -p cbr -e 210 -c 0 -i 4 -a 0 -x {0.0 3.0 4 ------- null}
- -t 0.284 -s 2 -d 3 -p cbr -e 210 -c 0 -i 4 -a 0 -x {0.0 3.0 4 ------- null}
h -t 0.284 -s 2 -d 3 -p cbr -e 210 -c 0 -i 4 -a 0 -x {0.0 3.0 -1 ------- null}
- -t 0.2848 -s 0 -d 2 -p cbr -e 210 -c 0 -i 38 -a 0 -x {0.0 3.0 32 ------- null}
h -t 0.2848 -s 0 -d 2 -p cbr -e 210 -c 0 -i 38 -a 0 -x {0.0 3.0 -1 ------- null}
r -t 0.285 -s 2 -d 3 -p cbr -e 210 -c 0 -i 3 -a 0 -x {0.0 3.0 3 ------- null}
+ -t 0.28625 -s 1 -d 2 -p cbr -e 210 -c 0 -i 73 -a 0 -x {1.0 3.0 23 ------- null}
+ -t 0.2875 -s 0 -d 2 -p cbr -e 210 -c 0 -i 74 -a 0 -x {0.0 3.0 50 ------- null}
+ -t 0.29 -s 1 -d 2 -p cbr -e 210 -c 0 -i 75 -a 0 -x {1.0 3.0 24 ------- null}
d -t 0.29 -s 1 -d 2 -p cbr -e 210 -c 0 -i 75 -a 0 -x {1.0 3.0 24 ------- null}
+ -t 0.29125 -s 0 -d 2 -p cbr -e 210 -c 0 -i 76 -a 0 -x {0.0 3.0 51 ------- null}
d -t 0.29125 -s 0 -d 2 -p cbr -e 210 -c 0 -i 76 -a 0 -x {0.0 3.0 51 ------- null}
+ -t 0.29375 -s 1 -d 2 -p cbr -e 210 -c 0 -i 77 -a 0 -x {1.0 3.0 25 ------- null}
d -t 0.29375 -s 1 -d 2 -p cbr -e 210 -c 0 -i 77 -a 0 -x {1.0 3.0 25 ------- null}
+ -t 0.295 -s 0 -d 2 -p cbr -e 210 -c 0 -i 78 -a 0 -x {0.0 3.0 52 ------- null}
d -t 0.295 -s 0 -d 2 -p cbr -e 210 -c 0 -i 78 -a 0 -x {0.0 3.0 52 ------- null}
+ -t 0.2975 -s 1 -d 2 -p cbr -e 210 -c 0 -i 79 -a 0 -x {1.0 3.0 26 ------- null}
d -t 0.2975 -s 1 -d 2 -p cbr -e 210 -c 0 -i 79 -a 0 -x {1.0 3.0 26 ------- null}
+ -t 0.29875 -s 0 -d 2 -p cbr -e 210 -c 0 -i 80 -a 0 -x {0.0 3.0 53 ------- null}
d -t 0.29875 -s 0 -d 2 -p cbr -e 210 -c 0 -i 80 -a 0 -x {0.0 3.0 53 ------- null}
- -t 0.3008 -s 1 -d 2 -p cbr -e 210 -c 0 -i 45 -a 0 -x {1.0 3.0 9 ------- null}
h -t 0.3008 -s 1 -d 2 -p cbr -e 210 -c 0 -i 45 -a 0 -x {1.0 3.0 -1 ------- null}
r -t 0.3008 -s 0 -d 2 -p cbr -e 210 -c 0 -i 5 -a 0 -x {0.0 3.0 5 ------- null}
+ -t 0.3008 -s 2 -d 3 -p cbr -e 210 -c 0 -i 5 -a 0 -x {0.0 3.0 5 ------- null}
- -t 0.3008 -s 2 -d 3 -p cbr -e 210 -c 0 -i 5 -a 0 -x {0.0 3.0 5 ------- null}
h -t 0.3008 -s 2 -d 3 -p cbr -e 210 -c 0 -i 5 -a 0 -x {0.0 3.0 -1 ------- null}
+ -t 0.30125 -s 1 -d 2 -p cbr -e 210 -c 0 -i 81 -a 0 -x {1.0 3.0 27 ------- null}
- -t 0.3016 -s 0 -d 2 -p cbr -e 210 -c 0 -i 46 -a 0 -x {0.0 3.0 36 ------- null}
h -t 0.3016 -s 0 -d 2 -p cbr -e 210 -c 0 -i 46 -a 0 -x {0.0 3.0 -1 ------- null}
r -t 0.3018 -s 2 -d 3 -p cbr -e 210 -c 0 -i 4 -a 0 -x {0.0 3.0 4 ------- null}
+ -t 0.3025 -s 0 -d 2 -p cbr -e 210 -c 0 -i 82 -a 0 -x {0.0 3.0 54 ------- null}
+ -t 0.305 -s 1 -d 2 -p cbr -e 210 -c 0 -i 83 -a 0 -x {1.0 3.0 28 ------- null}
d -t 0.305 -s 1 -d 2 -p cbr -e 210 -c 0 -i 83 -a 0 -x {1.0 3.0 28 ------- null}
+ -t 0.30625 -s 0 -d 2 -p cbr -e 210 -c 0 -i 84 -a 0 -x {0.0 3.0 55 ------- null}
d -t 0.30625 -s 0 -d 2 -p cbr -e 210 -c 0 -i 84 -a 0 -x {0.0 3.0 55 ------- null}
+ -t 0.30875 -s 1 -d 2 -p cbr -e 210 -c 0 -i 85 -a 0 -x {1.0 3.0 29 ------- null}
d -t 0.30875 -s 1 -d 2 -p cbr -e 210 -c 0 -i 85 -a 0 -x {1.0 3.0 29 ------- null}
+ -t 0.31 -s 0 -d 2 -p cbr -e 210 -c 0 -i 86 -a 0 -x {0.0 3.0 56 ------- null}
d -t 0.31 -s 0 -d 2 -p cbr -e 210 -c 0 -i 86 -a 0 -x {0.0 3.0 56 ------- null}
+ -t 0.3125 -s 1 -d 2 -p cbr -e 210 -c 0 -i 87 -a 0 -x {1.0 3.0 30 ------- null}
d -t 0.3125 -s 1 -d 2 -p cbr -e 210 -c 0 -i 87 -a 0 -x {1.0 3.0 30 ------- null}
+ -t 0.31375 -s 0 -d 2 -p cbr -e 210 -c 0 -i 88 -a 0 -x {0.0 3.0 57 ------- null}
d -t 0.31375 -s 0 -d 2 -p cbr -e 210 -c 0 -i 88 -a 0 -x {0.0 3.0 57 ------- null}
+ -t 0.31625 -s 1 -d 2 -p cbr -e 210 -c 0 -i 89 -a 0 -x {1.0 3.0 31 ------- null}
d -t 0.31625 -s 1 -d 2 -p cbr -e 210 -c 0 -i 89 -a 0 -x {1.0 3.0 31 ------- null}
r -t 0.3168 -s 1 -d 2 -p cbr -e 210 -c 0 -i 27 -a 0 -x {1.0 3.0 0 ------- null}
+ -t 0.3168 -s 2 -d 3 -p cbr -e 210 -c 0 -i 27 -a 0 -x {1.0 3.0 0 ------- null}
+ -t 0.3175 -s 0 -d 2 -p cbr -e 210 -c 0 -i 90 -a 0 -x {0.0 3.0 58 ------- null}
d -t 0.3175 -s 0 -d 2 -p cbr -e 210 -c 0 -i 90 -a 0 -x {0.0 3.0 58 ------- null}
- -t 0.3176 -s 1 -d 2 -p cbr -e 210 -c 0 -i 55 -a 0 -x {1.0 3.0 14 ------- null}
h -t 0.3176 -s 1 -d 2 -p cbr -e 210 -c 0 -i 55 -a 0 -x {1.0 3.0 -1 ------- null}
- -t 0.3176 -s 2 -d 3 -p cbr -e 210 -c 0 -i 27 -a 0 -x {1.0 3.0 0 ------- null}
h -t 0.3176 -s 2 -d 3 -p cbr -e 210 -c 0 -i 27 -a 0 -x {1.0 3.0 -1 ------- null}
r -t 0.3176 -s 0 -d 2 -p cbr -e 210 -c 0 -i 9 -a 0 -x {0.0 3.0 9 ------- null}
+ -t 0.3176 -s 2 -d 3 -p cbr -e 210 -c 0 -i 9 -a 0 -x {0.0 3.0 9 ------- null}
- -t 0.3184 -s 0 -d 2 -p cbr -e 210 -c 0 -i 56 -a 0 -x {0.0 3.0 41 ------- null}
h -t 0.3184 -s 0 -d 2 -p cbr -e 210 -c 0 -i 56 -a 0 -x {0.0 3.0 -1 ------- null}
r -t 0.3186 -s 2 -d 3 -p cbr -e 210 -c 0 -i 5 -a 0 -x {0.0 3.0 5 ------- null}
+ -t 0.32 -s 1 -d 2 -p cbr -e 210 -c 0 -i 91 -a 0 -x {1.0 3.0 32 ------- null}
+ -t 0.32125 -s 0 -d 2 -p cbr -e 210 -c 0 -i 92 -a 0 -x {0.0 3.0 59 ------- null}
+ -t 0.32375 -s 1 -d 2 -p cbr -e 210 -c 0 -i 93 -a 0 -x {1.0 3.0 33 ------- null}
d -t 0.32375 -s 1 -d 2 -p cbr -e 210 -c 0 -i 93 -a 0 -x {1.0 3.0 33 ------- null}
+ -t 0.325 -s 0 -d 2 -p cbr -e 210 -c 0 -i 94 -a 0 -x {0.0 3.0 60 ------- null}
d -t 0.325 -s 0 -d 2 -p cbr -e 210 -c 0 -i 94 -a 0 -x {0.0 3.0 60 ------- null}
+ -t 0.3275 -s 1 -d 2 -p cbr -e 210 -c 0 -i 95 -a 0 -x {1.0 3.0 34 ------- null}
d -t 0.3275 -s 1 -d 2 -p cbr -e 210 -c 0 -i 95 -a 0 -x {1.0 3.0 34 ------- null}
+ -t 0.32875 -s 0 -d 2 -p cbr -e 210 -c 0 -i 96 -a 0 -x {0.0 3.0 61 ------- null}
d -t 0.32875 -s 0 -d 2 -p cbr -e 210 -c 0 -i 96 -a 0 -x {0.0 3.0 61 ------- null}
+ -t 0.33125 -s 1 -d 2 -p cbr -e 210 -c 0 -i 97 -a 0 -x {1.0 3.0 35 ------- null}
d -t 0.33125 -s 1 -d 2 -p cbr -e 210 -c 0 -i 97 -a 0 -x {1.0 3.0 35 ------- null}
+ -t 0.3325 -s 0 -d 2 -p cbr -e 210 -c 0 -i 98 -a 0 -x {0.0 3.0 62 ------- null}
d -t 0.3325 -s 0 -d 2 -p cbr -e 210 -c 0 -i 98 -a 0 -x {0.0 3.0 62 ------- null}
r -t 0.3336 -s 1 -d 2 -p cbr -e 210 -c 0 -i 29 -a 0 -x {1.0 3.0 1 ------- null}
+ -t 0.3336 -s 2 -d 3 -p cbr -e 210 -c 0 -i 29 -a 0 -x {1.0 3.0 1 ------- null}
- -t 0.3344 -s 1 -d 2 -p cbr -e 210 -c 0 -i 63 -a 0 -x {1.0 3.0 18 ------- null}
h -t 0.3344 -s 1 -d 2 -p cbr -e 210 -c 0 -i 63 -a 0 -x {1.0 3.0 -1 ------- null}
- -t 0.3344 -s 2 -d 3 -p cbr -e 210 -c 0 -i 9 -a 0 -x {0.0 3.0 9 ------- null}
h -t 0.3344 -s 2 -d 3 -p cbr -e 210 -c 0 -i 9 -a 0 -x {0.0 3.0 -1 ------- null}
r -t 0.3344 -s 0 -d 2 -p cbr -e 210 -c 0 -i 14 -a 0 -x {0.0 3.0 14 ------- null}
+ -t 0.3344 -s 2 -d 3 -p cbr -e 210 -c 0 -i 14 -a 0 -x {0.0 3.0 14 ------- null}
+ -t 0.335 -s 1 -d 2 -p cbr -e 210 -c 0 -i 99 -a 0 -x {1.0 3.0 36 ------- null}
- -t 0.3352 -s 0 -d 2 -p cbr -e 210 -c 0 -i 64 -a 0 -x {0.0 3.0 45 ------- null}
h -t 0.3352 -s 0 -d 2 -p cbr -e 210 -c 0 -i 64 -a 0 -x {0.0 3.0 -1 ------- null}
r -t 0.3354 -s 2 -d 3 -p cbr -e 210 -c 0 -i 27 -a 0 -x {1.0 3.0 0 ------- null}
+ -t 0.33625 -s 0 -d 2 -p cbr -e 210 -c 0 -i 100 -a 0 -x {0.0 3.0 63 ------- null}
+ -t 0.338749999999999 -s 1 -d 2 -p cbr -e 210 -c 0 -i 101 -a 0 -x {1.0 3.0 37 ------- null}
d -t 0.338749999999999 -s 1 -d 2 -p cbr -e 210 -c 0 -i 101 -a 0 -x {1.0 3.0 37 ------- null}
+ -t 0.34 -s 0 -d 2 -p cbr -e 210 -c 0 -i 102 -a 0 -x {0.0 3.0 64 ------- null}
d -t 0.34 -s 0 -d 2 -p cbr -e 210 -c 0 -i 102 -a 0 -x {0.0 3.0 64 ------- null}
+ -t 0.342499999999999 -s 1 -d 2 -p cbr -e 210 -c 0 -i 103 -a 0 -x {1.0 3.0 38 ------- null}
d -t 0.342499999999999 -s 1 -d 2 -p cbr -e 210 -c 0 -i 103 -a 0 -x {1.0 3.0 38 ------- null}
+ -t 0.34375 -s 0 -d 2 -p cbr -e 210 -c 0 -i 104 -a 0 -x {0.0 3.0 65 ------- null}
d -t 0.34375 -s 0 -d 2 -p cbr -e 210 -c 0 -i 104 -a 0 -x {0.0 3.0 65 ------- null}
+ -t 0.346249999999999 -s 1 -d 2 -p cbr -e 210 -c 0 -i 105 -a 0 -x {1.0 3.0 39 ------- null}
d -t 0.346249999999999 -s 1 -d 2 -p cbr -e 210 -c 0 -i 105 -a 0 -x {1.0 3.0 39 ------- null}
+ -t 0.347499999999999 -s 0 -d 2 -p cbr -e 210 -c 0 -i 106 -a 0 -x {0.0 3.0 66 ------- null}
d -t 0.347499999999999 -s 0 -d 2 -p cbr -e 210 -c 0 -i 106 -a 0 -x {0.0 3.0 66 ------- null}
+ -t 0.349999999999999 -s 1 -d 2 -p cbr -e 210 -c 0 -i 107 -a 0 -x {1.0 3.0 40 ------- null}
d -t 0.349999999999999 -s 1 -d 2 -p cbr -e 210 -c 0 -i 107 -a 0 -x {1.0 3.0 40 ------- null}
r -t 0.3504 -s 1 -d 2 -p cbr -e 210 -c 0 -i 31 -a 0 -x {1.0 3.0 2 ------- null}
+ -t 0.3504 -s 2 -d 3 -p cbr -e 210 -c 0 -i 31 -a 0 -x {1.0 3.0 2 ------- null}
- -t 0.3512 -s 1 -d 2 -p cbr -e 210 -c 0 -i 73 -a 0 -x {1.0 3.0 23 ------- null}
h -t 0.3512 -s 1 -d 2 -p cbr -e 210 -c 0 -i 73 -a 0 -x {1.0 3.0 -1 ------- null}
- -t 0.3512 -s 2 -d 3 -p cbr -e 210 -c 0 -i 29 -a 0 -x {1.0 3.0 1 ------- null}
h -t 0.3512 -s 2 -d 3 -p cbr -e 210 -c 0 -i 29 -a 0 -x {1.0 3.0 -1 ------- null}
r -t 0.3512 -s 0 -d 2 -p cbr -e 210 -c 0 -i 18 -a 0 -x {0.0 3.0 18 ------- null}
+ -t 0.3512 -s 2 -d 3 -p cbr -e 210 -c 0 -i 18 -a 0 -x {0.0 3.0 18 ------- null}
+ -t 0.351249999999999 -s 0 -d 2 -p cbr -e 210 -c 0 -i 108 -a 0 -x {0.0 3.0 67 ------- null}
d -t 0.351249999999999 -s 0 -d 2 -p cbr -e 210 -c 0 -i 108 -a 0 -x {0.0 3.0 67 ------- null}
- -t 0.352 -s 0 -d 2 -p cbr -e 210 -c 0 -i 74 -a 0 -x {0.0 3.0 50 ------- null}
h -t 0.352 -s 0 -d 2 -p cbr -e 210 -c 0 -i 74 -a 0 -x {0.0 3.0 -1 ------- null}
r -t 0.3522 -s 2 -d 3 -p cbr -e 210 -c 0 -i 9 -a 0 -x {0.0 3.0 9 ------- null}
+ -t 0.353749999999999 -s 1 -d 2 -p cbr -e 210 -c 0 -i 109 -a 0 -x {1.0 3.0 41 ------- null}
+ -t 0.354999999999999 -s 0 -d 2 -p cbr -e 210 -c 0 -i 110 -a 0 -x {0.0 3.0 68 ------- null}
+ -t 0.357499999999999 -s 1 -d 2 -p cbr -e 210 -c 0 -i 111 -a 0 -x {1.0 3.0 42 ------- null}
d -t 0.357499999999999 -s 1 -d 2 -p cbr -e 210 -c 0 -i 111 -a 0 -x {1.0 3.0 42 ------- null}
+ -t 0.358749999999999 -s 0 -d 2 -p cbr -e 210 -c 0 -i 112 -a 0 -x {0.0 3.0 69 ------- null}
d -t 0.358749999999999 -s 0 -d 2 -p cbr -e 210 -c 0 -i 112 -a 0 -x {0.0 3.0 69 ------- null}
+ -t 0.361249999999999 -s 1 -d 2 -p cbr -e 210 -c 0 -i 113 -a 0 -x {1.0 3.0 43 ------- null}
d -t 0.361249999999999 -s 1 -d 2 -p cbr -e 210 -c 0 -i 113 -a 0 -x {1.0 3.0 43 ------- null}
+ -t 0.362499999999999 -s 0 -d 2 -p cbr -e 210 -c 0 -i 114 -a 0 -x {0.0 3.0 70 ------- null}
d -t 0.362499999999999 -s 0 -d 2 -p cbr -e 210 -c 0 -i 114 -a 0 -x {0.0 3.0 70 ------- null}
+ -t 0.364999999999999 -s 1 -d 2 -p cbr -e 210 -c 0 -i 115 -a 0 -x {1.0 3.0 44 ------- null}
d -t 0.364999999999999 -s 1 -d 2 -p cbr -e 210 -c 0 -i 115 -a 0 -x {1.0 3.0 44 ------- null}
+ -t 0.366249999999999 -s 0 -d 2 -p cbr -e 210 -c 0 -i 116 -a 0 -x {0.0 3.0 71 ------- null}
d -t 0.366249999999999 -s 0 -d 2 -p cbr -e 210 -c 0 -i 116 -a 0 -x {0.0 3.0 71 ------- null}
r -t 0.3672 -s 1 -d 2 -p cbr -e 210 -c 0 -i 33 -a 0 -x {1.0 3.0 3 ------- null}
+ -t 0.3672 -s 2 -d 3 -p cbr -e 210 -c 0 -i 33 -a 0 -x {1.0 3.0 3 ------- null}
- -t 0.368 -s 1 -d 2 -p cbr -e 210 -c 0 -i 81 -a 0 -x {1.0 3.0 27 ------- null}
h -t 0.368 -s 1 -d 2 -p cbr -e 210 -c 0 -i 81 -a 0 -x {1.0 3.0 -1 ------- null}
- -t 0.368 -s 2 -d 3 -p cbr -e 210 -c 0 -i 14 -a 0 -x {0.0 3.0 14 ------- null}
h -t 0.368 -s 2 -d 3 -p cbr -e 210 -c 0 -i 14 -a 0 -x {0.0 3.0 -1 ------- null}
r -t 0.368 -s 0 -d 2 -p cbr -e 210 -c 0 -i 23 -a 0 -x {0.0 3.0 23 ------- null}
+ -t 0.368 -s 2 -d 3 -p cbr -e 210 -c 0 -i 23 -a 0 -x {0.0 3.0 23 ------- null}
+ -t 0.368749999999999 -s 1 -d 2 -p cbr -e 210 -c 0 -i 117 -a 0 -x {1.0 3.0 45 ------- null}
- -t 0.3688 -s 0 -d 2 -p cbr -e 210 -c 0 -i 82 -a 0 -x {0.0 3.0 54 ------- null}
h -t 0.3688 -s 0 -d 2 -p cbr -e 210 -c 0 -i 82 -a 0 -x {0.0 3.0 -1 ------- null}
r -t 0.369 -s 2 -d 3 -p cbr -e 210 -c 0 -i 29 -a 0 -x {1.0 3.0 1 ------- null}
+ -t 0.369999999999999 -s 0 -d 2 -p cbr -e 210 -c 0 -i 118 -a 0 -x {0.0 3.0 72 ------- null}
+ -t 0.372499999999999 -s 1 -d 2 -p cbr -e 210 -c 0 -i 119 -a 0 -x {1.0 3.0 46 ------- null}
d -t 0.372499999999999 -s 1 -d 2 -p cbr -e 210 -c 0 -i 119 -a 0 -x {1.0 3.0 46 ------- null}
+ -t 0.373749999999999 -s 0 -d 2 -p cbr -e 210 -c 0 -i 120 -a 0 -x {0.0 3.0 73 ------- null}
d -t 0.373749999999999 -s 0 -d 2 -p cbr -e 210 -c 0 -i 120 -a 0 -x {0.0 3.0 73 ------- null}
+ -t 0.376249999999999 -s 1 -d 2 -p cbr -e 210 -c 0 -i 121 -a 0 -x {1.0 3.0 47 ------- null}
d -t 0.376249999999999 -s 1 -d 2 -p cbr -e 210 -c 0 -i 121 -a 0 -x {1.0 3.0 47 ------- null}
+ -t 0.377499999999999 -s 0 -d 2 -p cbr -e 210 -c 0 -i 122 -a 0 -x {0.0 3.0 74 ------- null}
d -t 0.377499999999999 -s 0 -d 2 -p cbr -e 210 -c 0 -i 122 -a 0 -x {0.0 3.0 74 ------- null}
+ -t 0.379999999999999 -s 1 -d 2 -p cbr -e 210 -c 0 -i 123 -a 0 -x {1.0 3.0 48 ------- null}
d -t 0.379999999999999 -s 1 -d 2 -p cbr -e 210 -c 0 -i 123 -a 0 -x {1.0 3.0 48 ------- null}
+ -t 0.381249999999999 -s 0 -d 2 -p cbr -e 210 -c 0 -i 124 -a 0 -x {0.0 3.0 75 ------- null}
d -t 0.381249999999999 -s 0 -d 2 -p cbr -e 210 -c 0 -i 124 -a 0 -x {0.0 3.0 75 ------- null}
+ -t 0.383749999999999 -s 1 -d 2 -p cbr -e 210 -c 0 -i 125 -a 0 -x {1.0 3.0 49 ------- null}
d -t 0.383749999999999 -s 1 -d 2 -p cbr -e 210 -c 0 -i 125 -a 0 -x {1.0 3.0 49 ------- null}
r -t 0.384 -s 1 -d 2 -p cbr -e 210 -c 0 -i 35 -a 0 -x {1.0 3.0 4 ------- null}
+ -t 0.384 -s 2 -d 3 -p cbr -e 210 -c 0 -i 35 -a 0 -x {1.0 3.0 4 ------- null}
- -t 0.3848 -s 1 -d 2 -p cbr -e 210 -c 0 -i 91 -a 0 -x {1.0 3.0 32 ------- null}
h -t 0.3848 -s 1 -d 2 -p cbr -e 210 -c 0 -i 91 -a 0 -x {1.0 3.0 -1 ------- null}
- -t 0.3848 -s 2 -d 3 -p cbr -e 210 -c 0 -i 31 -a 0 -x {1.0 3.0 2 ------- null}
h -t 0.3848 -s 2 -d 3 -p cbr -e 210 -c 0 -i 31 -a 0 -x {1.0 3.0 -1 ------- null}
r -t 0.3848 -s 0 -d 2 -p cbr -e 210 -c 0 -i 28 -a 0 -x {0.0 3.0 27 ------- null}
+ -t 0.3848 -s 2 -d 3 -p cbr -e 210 -c 0 -i 28 -a 0 -x {0.0 3.0 27 ------- null}
+ -t 0.384999999999999 -s 0 -d 2 -p cbr -e 210 -c 0 -i 126 -a 0 -x {0.0 3.0 76 ------- null}
d -t 0.384999999999999 -s 0 -d 2 -p cbr -e 210 -c 0 -i 126 -a 0 -x {0.0 3.0 76 ------- null}
- -t 0.3856 -s 0 -d 2 -p cbr -e 210 -c 0 -i 92 -a 0 -x {0.0 3.0 59 ------- null}
h -t 0.3856 -s 0 -d 2 -p cbr -e 210 -c 0 -i 92 -a 0 -x {0.0 3.0 -1 ------- null}
r -t 0.3858 -s 2 -d 3 -p cbr -e 210 -c 0 -i 14 -a 0 -x {0.0 3.0 14 ------- null}
+ -t 0.387499999999999 -s 1 -d 2 -p cbr -e 210 -c 0 -i 127 -a 0 -x {1.0 3.0 50 ------- null}
+ -t 0.388749999999999 -s 0 -d 2 -p cbr -e 210 -c 0 -i 128 -a 0 -x {0.0 3.0 77 ------- null}
+ -t 0.391249999999999 -s 1 -d 2 -p cbr -e 210 -c 0 -i 129 -a 0 -x {1.0 3.0 51 ------- null}
d -t 0.391249999999999 -s 1 -d 2 -p cbr -e 210 -c 0 -i 129 -a 0 -x {1.0 3.0 51 ------- null}
+ -t 0.392499999999999 -s 0 -d 2 -p cbr -e 210 -c 0 -i 130 -a 0 -x {0.0 3.0 78 ------- null}
d -t 0.392499999999999 -s 0 -d 2 -p cbr -e 210 -c 0 -i 130 -a 0 -x {0.0 3.0 78 ------- null}
+ -t 0.394999999999999 -s 1 -d 2 -p cbr -e 210 -c 0 -i 131 -a 0 -x {1.0 3.0 52 ------- null}
d -t 0.394999999999999 -s 1 -d 2 -p cbr -e 210 -c 0 -i 131 -a 0 -x {1.0 3.0 52 ------- null}
+ -t 0.396249999999999 -s 0 -d 2 -p cbr -e 210 -c 0 -i 132 -a 0 -x {0.0 3.0 79 ------- null}
d -t 0.396249999999999 -s 0 -d 2 -p cbr -e 210 -c 0 -i 132 -a 0 -x {0.0 3.0 79 ------- null}
+ -t 0.398749999999999 -s 1 -d 2 -p cbr -e 210 -c 0 -i 133 -a 0 -x {1.0 3.0 53 ------- null}
d -t 0.398749999999999 -s 1 -d 2 -p cbr -e 210 -c 0 -i 133 -a 0 -x {1.0 3.0 53 ------- null}
+ -t 0.399999999999999 -s 0 -d 2 -p cbr -e 210 -c 0 -i 134 -a 0 -x {0.0 3.0 80 ------- null}
d -t 0.399999999999999 -s 0 -d 2 -p cbr -e 210 -c 0 -i 134 -a 0 -x {0.0 3.0 80 ------- null}
r -t 0.4008 -s 1 -d 2 -p cbr -e 210 -c 0 -i 37 -a 0 -x {1.0 3.0 5 ------- null}