+ 0.8 4 3 tcp 40 ------- 0 4.0 1.0 0 0
- 0.8 4 3 tcp 40 ------- 0 4.0 1.0 0 0
r 0.850107 4 3 tcp 40 ------- 0 4.0 1.0 0 0
+ 0.850107 3 2 tcp 40 ------- 0 4.0 1.0 0 0
- 0.850107 3 2 tcp 40 ------- 0 4.0 1.0 0 0
r 1.00094 3 2 tcp 40 ------- 0 4.0 1.0 0 0
+ 1.00094 2 0 tcp 40 ------- 0 4.0 1.0 0 0
- 1.00094 2 0 tcp 40 ------- 0 4.0 1.0 0 0
r 1.151773 2 0 tcp 40 ------- 0 4.0 1.0 0 0
+ 1.151773 0 1 tcp 40 ------- 0 4.0 1.0 0 0
- 1.151773 0 1 tcp 40 ------- 0 4.0 1.0 0 0
r 1.16188 0 1 tcp 40 ------- 0 4.0 1.0 0 0
+ 1.16188 1 0 ack 40 ------- 0 1.0 4.0 0 1
- 1.16188 1 0 ack 40 ------- 0 1.0 4.0 0 1
r 1.171987 1 0 ack 40 ------- 0 1.0 4.0 0 1
+ 1.171987 0 2 ack 40 ------- 0 1.0 4.0 0 1
- 1.171987 0 2 ack 40 ------- 0 1.0 4.0 0 1
r 1.32282 0 2 ack 40 ------- 0 1.0 4.0 0 1
+ 1.32282 2 3 ack 40 ------- 0 1.0 4.0 0 1
- 1.32282 2 3 ack 40 ------- 0 1.0 4.0 0 1
r 1.473653 2 3 ack 40 ------- 0 1.0 4.0 0 1
+ 1.473653 3 4 ack 40 ------- 0 1.0 4.0 0 1
- 1.473653 3 4 ack 40 ------- 0 1.0 4.0 0 1
r 1.52376 3 4 ack 40 ------- 0 1.0 4.0 0 1
+ 1.52376 4 3 tcp 1040 ------- 0 4.0 1.0 1 2
- 1.52376 4 3 tcp 1040 ------- 0 4.0 1.0 1 2
+ 1.52376 4 3 tcp 1040 ------- 0 4.0 1.0 2 3
- 1.526533 4 3 tcp 1040 ------- 0 4.0 1.0 2 3
r 1.576533 4 3 tcp 1040 ------- 0 4.0 1.0 1 2
+ 1.576533 3 2 tcp 1040 ------- 0 4.0 1.0 1 2
- 1.576533 3 2 tcp 1040 ------- 0 4.0 1.0 1 2
r 1.579307 4 3 tcp 1040 ------- 0 4.0 1.0 2 3
+ 1.579307 3 2 tcp 1040 ------- 0 4.0 1.0 2 3
- 1.5982 3 2 tcp 1040 ------- 0 4.0 1.0 2 3
r 1.7482 3 2 tcp 1040 ------- 0 4.0 1.0 1 2
+ 1.7482 2 0 tcp 1040 ------- 0 4.0 1.0 1 2
- 1.7482 2 0 tcp 1040 ------- 0 4.0 1.0 1 2
r 1.769867 3 2 tcp 1040 ------- 0 4.0 1.0 2 3
+ 1.769867 2 0 tcp 1040 ------- 0 4.0 1.0 2 3
- 1.769867 2 0 tcp 1040 ------- 0 4.0 1.0 2 3
r 1.919867 2 0 tcp 1040 ------- 0 4.0 1.0 1 2
+ 1.919867 0 1 tcp 1040 ------- 0 4.0 1.0 1 2
- 1.919867 0 1 tcp 1040 ------- 0 4.0 1.0 1 2
r 1.93264 0 1 tcp 1040 ------- 0 4.0 1.0 1 2
+ 1.93264 1 0 ack 40 ------- 0 1.0 4.0 1 4
- 1.93264 1 0 ack 40 ------- 0 1.0 4.0 1 4
r 1.941533 2 0 tcp 1040 ------- 0 4.0 1.0 2 3
+ 1.941533 0 1 tcp 1040 ------- 0 4.0 1.0 2 3
- 1.941533 0 1 tcp 1040 ------- 0 4.0 1.0 2 3
r 1.942747 1 0 ack 40 ------- 0 1.0 4.0 1 4
+ 1.942747 0 2 ack 40 ------- 0 1.0 4.0 1 4
- 1.942747 0 2 ack 40 ------- 0 1.0 4.0 1 4
r 1.954307 0 1 tcp 1040 ------- 0 4.0 1.0 2 3
+ 1.954307 1 0 ack 40 ------- 0 1.0 4.0 2 5
- 1.954307 1 0 ack 40 ------- 0 1.0 4.0 2 5
r 1.964413 1 0 ack 40 ------- 0 1.0 4.0 2 5
+ 1.964413 0 2 ack 40 ------- 0 1.0 4.0 2 5
- 1.964413 0 2 ack 40 ------- 0 1.0 4.0 2 5
r 2.09358 0 2 ack 40 ------- 0 1.0 4.0 1 4
+ 2.09358 2 3 ack 40 ------- 0 1.0 4.0 1 4
- 2.09358 2 3 ack 40 ------- 0 1.0 4.0 1 4
r 2.115247 0 2 ack 40 ------- 0 1.0 4.0 2 5
+ 2.115247 2 3 ack 40 ------- 0 1.0 4.0 2 5
- 2.115247 2 3 ack 40 ------- 0 1.0 4.0 2 5
r 2.244413 2 3 ack 40 ------- 0 1.0 4.0 1 4
+ 2.244413 3 4 ack 40 ------- 0 1.0 4.0 1 4
- 2.244413 3 4 ack 40 ------- 0 1.0 4.0 1 4
r 2.26608 2 3 ack 40 ------- 0 1.0 4.0 2 5
+ 2.26608 3 4 ack 40 ------- 0 1.0 4.0 2 5
- 2.26608 3 4 ack 40 ------- 0 1.0 4.0 2 5
r 2.29452 3 4 ack 40 ------- 0 1.0 4.0 1 4
+ 2.29452 4 3 tcp 1040 ------- 0 4.0 1.0 3 6
- 2.29452 4 3 tcp 1040 ------- 0 4.0 1.0 3 6
+ 2.29452 4 3 tcp 1040 ------- 0 4.0 1.0 4 7
- 2.297293 4 3 tcp 1040 ------- 0 4.0 1.0 4 7
r 2.316187 3 4 ack 40 ------- 0 1.0 4.0 2 5
+ 2.316187 4 3 tcp 1040 ------- 0 4.0 1.0 5 8
- 2.316187 4 3 tcp 1040 ------- 0 4.0 1.0 5 8
+ 2.316187 4 3 tcp 1040 ------- 0 4.0 1.0 6 9
- 2.31896 4 3 tcp 1040 ------- 0 4.0 1.0 6 9
r 2.347293 4 3 tcp 1040 ------- 0 4.0 1.0 3 6
+ 2.347293 3 2 tcp 1040 ------- 0 4.0 1.0 3 6
- 2.347293 3 2 tcp 1040 ------- 0 4.0 1.0 3 6
r 2.350067 4 3 tcp 1040 ------- 0 4.0 1.0 4 7
+ 2.350067 3 2 tcp 1040 ------- 0 4.0 1.0 4 7
r 2.36896 4 3 tcp 1040 ------- 0 4.0 1.0 5 8
+ 2.36896 3 2 tcp 1040 ------- 0 4.0 1.0 5 8
- 2.36896 3 2 tcp 1040 ------- 0 4.0 1.0 4 7
r 2.371733 4 3 tcp 1040 ------- 0 4.0 1.0 6 9
+ 2.371733 3 2 tcp 1040 ------- 0 4.0 1.0 6 9
- 2.390627 3 2 tcp 1040 ------- 0 4.0 1.0 5 8
- 2.412293 3 2 tcp 1040 ------- 0 4.0 1.0 6 9
r 2.51896 3 2 tcp 1040 ------- 0 4.0 1.0 3 6
+ 2.51896 2 0 tcp 1040 ------- 0 4.0 1.0 3 6
- 2.51896 2 0 tcp 1040 ------- 0 4.0 1.0 3 6
r 2.540627 3 2 tcp 1040 ------- 0 4.0 1.0 4 7
+ 2.540627 2 0 tcp 1040 ------- 0 4.0 1.0 4 7
- 2.540627 2 0 tcp 1040 ------- 0 4.0 1.0 4 7
r 2.562293 3 2 tcp 1040 ------- 0 4.0 1.0 5 8
+ 2.562293 2 0 tcp 1040 ------- 0 4.0 1.0 5 8
- 2.562293 2 0 tcp 1040 ------- 0 4.0 1.0 5 8
r 2.58396 3 2 tcp 1040 ------- 0 4.0 1.0 6 9
+ 2.58396 2 0 tcp 1040 ------- 0 4.0 1.0 6 9
- 2.58396 2 0 tcp 1040 ------- 0 4.0 1.0 6 9
r 2.690627 2 0 tcp 1040 ------- 0 4.0 1.0 3 6
+ 2.690627 0 1 tcp 1040 ------- 0 4.0 1.0 3 6
- 2.690627 0 1 tcp 1040 ------- 0 4.0 1.0 3 6
r 2.7034 0 1 tcp 1040 ------- 0 4.0 1.0 3 6
+ 2.7034 1 0 ack 40 ------- 0 1.0 4.0 3 10
- 2.7034 1 0 ack 40 ------- 0 1.0 4.0 3 10
r 2.712293 2 0 tcp 1040 ------- 0 4.0 1.0 4 7
+ 2.712293 0 1 tcp 1040 ------- 0 4.0 1.0 4 7
- 2.712293 0 1 tcp 1040 ------- 0 4.0 1.0 4 7
r 2.713507 1 0 ack 40 ------- 0 1.0 4.0 3 10
+ 2.713507 0 2 ack 40 ------- 0 1.0 4.0 3 10
- 2.713507 0 2 ack 40 ------- 0 1.0 4.0 3 10
r 2.725067 0 1 tcp 1040 ------- 0 4.0 1.0 4 7
+ 2.725067 1 0 ack 40 ------- 0 1.0 4.0 4 11
- 2.725067 1 0 ack 40 ------- 0 1.0 4.0 4 11
r 2.73396 2 0 tcp 1040 ------- 0 4.0 1.0 5 8
+ 2.73396 0 1 tcp 1040 ------- 0 4.0 1.0 5 8
- 2.73396 0 1 tcp 1040 ------- 0 4.0 1.0 5 8
r 2.735173 1 0 ack 40 ------- 0 1.0 4.0 4 11
+ 2.735173 0 2 ack 40 ------- 0 1.0 4.0 4 11
- 2.735173 0 2 ack 40 ------- 0 1.0 4.0 4 11
r 2.746733 0 1 tcp 1040 ------- 0 4.0 1.0 5 8
+ 2.746733 1 0 ack 40 ------- 0 1.0 4.0 5 12
- 2.746733 1 0 ack 40 ------- 0 1.0 4.0 5 12
r 2.755627 2 0 tcp 1040 ------- 0 4.0 1.0 6 9
+ 2.755627 0 1 tcp 1040 ------- 0 4.0 1.0 6 9
- 2.755627 0 1 tcp 1040 ------- 0 4.0 1.0 6 9
r 2.75684 1 0 ack 40 ------- 0 1.0 4.0 5 12
+ 2.75684 0 2 ack 40 ------- 0 1.0 4.0 5 12
- 2.75684 0 2 ack 40 ------- 0 1.0 4.0 5 12
r 2.7684 0 1 tcp 1040 ------- 0 4.0 1.0 6 9
+ 2.7684 1 0 ack 40 ------- 0 1.0 4.0 6 13
- 2.7684 1 0 ack 40 ------- 0 1.0 4.0 6 13
r 2.778507 1 0 ack 40 ------- 0 1.0 4.0 6 13
+ 2.778507 0 2 ack 40 ------- 0 1.0 4.0 6 13
- 2.778507 0 2 ack 40 ------- 0 1.0 4.0 6 13
r 2.86434 0 2 ack 40 ------- 0 1.0 4.0 3 10
+ 2.86434 2 3 ack 40 ------- 0 1.0 4.0 3 10
- 2.86434 2 3 ack 40 ------- 0 1.0 4.0 3 10
r 2.886007 0 2 ack 40 ------- 0 1.0 4.0 4 11
+ 2.886007 2 3 ack 40 ------- 0 1.0 4.0 4 11
- 2.886007 2 3 ack 40 ------- 0 1.0 4.0 4 11
r 2.907673 0 2 ack 40 ------- 0 1.0 4.0 5 12
+ 2.907673 2 3 ack 40 ------- 0 1.0 4.0 5 12
- 2.907673 2 3 ack 40 ------- 0 1.0 4.0 5 12
r 2.92934 0 2 ack 40 ------- 0 1.0 4.0 6 13
+ 2.92934 2 3 ack 40 ------- 0 1.0 4.0 6 13
- 2.92934 2 3 ack 40 ------- 0 1.0 4.0 6 13
r 3.015173 2 3 ack 40 ------- 0 1.0 4.0 3 10
+ 3.015173 3 4 ack 40 ------- 0 1.0 4.0 3 10
- 3.015173 3 4 ack 40 ------- 0 1.0 4.0 3 10
r 3.03684 2 3 ack 40 ------- 0 1.0 4.0 4 11
+ 3.03684 3 4 ack 40 ------- 0 1.0 4.0 4 11
- 3.03684 3 4 ack 40 ------- 0 1.0 4.0 4 11
r 3.058507 2 3 ack 40 ------- 0 1.0 4.0 5 12
+ 3.058507 3 4 ack 40 ------- 0 1.0 4.0 5 12
- 3.058507 3 4 ack 40 ------- 0 1.0 4.0 5 12
r 3.06528 3 4 ack 40 ------- 0 1.0 4.0 3 10
+ 3.06528 4 3 tcp 1040 ------- 0 4.0 1.0 7 14
- 3.06528 4 3 tcp 1040 ------- 0 4.0 1.0 7 14
+ 3.06528 4 3 tcp 1040 ------- 0 4.0 1.0 8 15
- 3.068053 4 3 tcp 1040 ------- 0 4.0 1.0 8 15
r 3.080173 2 3 ack 40 ------- 0 1.0 4.0 6 13
+ 3.080173 3 4 ack 40 ------- 0 1.0 4.0 6 13
- 3.080173 3 4 ack 40 ------- 0 1.0 4.0 6 13
r 3.086947 3 4 ack 40 ------- 0 1.0 4.0 4 11
+ 3.086947 4 3 tcp 1040 ------- 0 4.0 1.0 9 16
- 3.086947 4 3 tcp 1040 ------- 0 4.0 1.0 9 16
+ 3.086947 4 3 tcp 1040 ------- 0 4.0 1.0 10 17
- 3.08972 4 3 tcp 1040 ------- 0 4.0 1.0 10 17
r 3.108613 3 4 ack 40 ------- 0 1.0 4.0 5 12
+ 3.108613 4 3 tcp 1040 ------- 0 4.0 1.0 11 18
- 3.108613 4 3 tcp 1040 ------- 0 4.0 1.0 11 18
+ 3.108613 4 3 tcp 1040 ------- 0 4.0 1.0 12 19
- 3.111387 4 3 tcp 1040 ------- 0 4.0 1.0 12 19
r 3.118053 4 3 tcp 1040 ------- 0 4.0 1.0 7 14
+ 3.118053 3 2 tcp 1040 ------- 0 4.0 1.0 7 14
- 3.118053 3 2 tcp 1040 ------- 0 4.0 1.0 7 14
r 3.120827 4 3 tcp 1040 ------- 0 4.0 1.0 8 15
+ 3.120827 3 2 tcp 1040 ------- 0 4.0 1.0 8 15
r 3.13028 3 4 ack 40 ------- 0 1.0 4.0 6 13
+ 3.13028 4 3 tcp 1040 ------- 0 4.0 1.0 13 20
- 3.13028 4 3 tcp 1040 ------- 0 4.0 1.0 13 20
+ 3.13028 4 3 tcp 1040 ------- 0 4.0 1.0 14 21
- 3.133053 4 3 tcp 1040 ------- 0 4.0 1.0 14 21
r 3.13972 4 3 tcp 1040 ------- 0 4.0 1.0 9 16
+ 3.13972 3 2 tcp 1040 ------- 0 4.0 1.0 9 16
- 3.13972 3 2 tcp 1040 ------- 0 4.0 1.0 8 15
r 3.142493 4 3 tcp 1040 ------- 0 4.0 1.0 10 17
+ 3.142493 3 2 tcp 1040 ------- 0 4.0 1.0 10 17
r 3.161387 4 3 tcp 1040 ------- 0 4.0 1.0 11 18
+ 3.161387 3 2 tcp 1040 ------- 0 4.0 1.0 11 18
- 3.161387 3 2 tcp 1040 ------- 0 4.0 1.0 9 16
r 3.16416 4 3 tcp 1040 ------- 0 4.0 1.0 12 19
+ 3.16416 3 2 tcp 1040 ------- 0 4.0 1.0 12 19
r 3.183053 4 3 tcp 1040 ------- 0 4.0 1.0 13 20
+ 3.183053 3 2 tcp 1040 ------- 0 4.0 1.0 13 20
- 3.183053 3 2 tcp 1040 ------- 0 4.0 1.0 10 17
r 3.185827 4 3 tcp 1040 ------- 0 4.0 1.0 14 21
+ 3.185827 3 2 tcp 1040 ------- 0 4.0 1.0 14 21
- 3.20472 3 2 tcp 1040 ------- 0 4.0 1.0 11 18
- 3.226387 3 2 tcp 1040 ------- 0 4.0 1.0 12 19
- 3.248053 3 2 tcp 1040 ------- 0 4.0 1.0 13 20
- 3.26972 3 2 tcp 1040 ------- 0 4.0 1.0 14 21
r 3.28972 3 2 tcp 1040 ------- 0 4.0 1.0 7 14
+ 3.28972 2 0 tcp 1040 ------- 0 4.0 1.0 7 14
- 3.28972 2 0 tcp 1040 ------- 0 4.0 1.0 7 14
r 3.311387 3 2 tcp 1040 ------- 0 4.0 1.0 8 15
+ 3.311387 2 0 tcp 1040 ------- 0 4.0 1.0 8 15
- 3.311387 2 0 tcp 1040 ------- 0 4.0 1.0 8 15
r 3.333053 3 2 tcp 1040 ------- 0 4.0 1.0 9 16
+ 3.333053 2 0 tcp 1040 ------- 0 4.0 1.0 9 16
- 3.333053 2 0 tcp 1040 ------- 0 4.0 1.0 9 16
r 3.35472 3 2 tcp 1040 ------- 0 4.0 1.0 10 17
+ 3.35472 2 0 tcp 1040 ------- 0 4.0 1.0 10 17
- 3.35472 2 0 tcp 1040 ------- 0 4.0 1.0 10 17
r 3.376387 3 2 tcp 1040 ------- 0 4.0 1.0 11 18
+ 3.376387 2 0 tcp 1040 ------- 0 4.0 1.0 11 18
- 3.376387 2 0 tcp 1040 ------- 0 4.0 1.0 11 18
r 3.398053 3 2 tcp 1040 ------- 0 4.0 1.0 12 19
+ 3.398053 2 0 tcp 1040 ------- 0 4.0 1.0 12 19
- 3.398053 2 0 tcp 1040 ------- 0 4.0 1.0 12 19
r 3.41972 3 2 tcp 1040 ------- 0 4.0 1.0 13 20
+ 3.41972 2 0 tcp 1040 ------- 0 4.0 1.0 13 20
- 3.41972 2 0 tcp 1040 ------- 0 4.0 1.0 13 20
r 3.441387 3 2 tcp 1040 ------- 0 4.0 1.0 14 21
+ 3.441387 2 0 tcp 1040 ------- 0 4.0 1.0 14 21
- 3.441387 2 0 tcp 1040 ------- 0 4.0 1.0 14 21
r 3.461387 2 0 tcp 1040 ------- 0 4.0 1.0 7 14
+ 3.461387 0 1 tcp 1040 ------- 0 4.0 1.0 7 14
- 3.461387 0 1 tcp 1040 ------- 0 4.0 1.0 7 14
r 3.47416 0 1 tcp 1040 ------- 0 4.0 1.0 7 14
+ 3.47416 1 0 ack 40 ------- 0 1.0 4.0 7 22
- 3.47416 1 0 ack 40 ------- 0 1.0 4.0 7 22
r 3.483053 2 0 tcp 1040 ------- 0 4.0 1.0 8 15
+ 3.483053 0 1 tcp 1040 ------- 0 4.0 1.0 8 15
- 3.483053 0 1 tcp 1040 ------- 0 4.0 1.0 8 15
r 3.484267 1 0 ack 40 ------- 0 1.0 4.0 7 22
+ 3.484267 0 2 ack 40 ------- 0 1.0 4.0 7 22
- 3.484267 0 2 ack 40 ------- 0 1.0 4.0 7 22
r 3.495827 0 1 tcp 1040 ------- 0 4.0 1.0 8 15
+ 3.495827 1 0 ack 40 ------- 0 1.0 4.0 8 23
- 3.495827 1 0 ack 40 ------- 0 1.0 4.0 8 23
r 3.50472 2 0 tcp 1040 ------- 0 4.0 1.0 9 16
+ 3.50472 0 1 tcp 1040 ------- 0 4.0 1.0 9 16
- 3.50472 0 1 tcp 1040 ------- 0 4.0 1.0 9 16
r 3.505933 1 0 ack 40 ------- 0 1.0 4.0 8 23
+ 3.505933 0 2 ack 40 ------- 0 1.0 4.0 8 23
- 3.505933 0 2 ack 40 ------- 0 1.0 4.0 8 23
r 3.517493 0 1 tcp 1040 ------- 0 4.0 1.0 9 16
+ 3.517493 1 0 ack 40 ------- 0 1.0 4.0 9 24
- 3.517493 1 0 ack 40 ------- 0 1.0 4.0 9 24
r 3.526387 2 0 tcp 1040 ------- 0 4.0 1.0 10 17
+ 3.526387 0 1 tcp 1040 ------- 0 4.0 1.0 10 17
- 3.526387 0 1 tcp 1040 ------- 0 4.0 1.0 10 17
r 3.5276 1 0 ack 40 ------- 0 1.0 4.0 9 24
+ 3.5276 0 2 ack 40 ------- 0 1.0 4.0 9 24
- 3.5276 0 2 ack 40 ------- 0 1.0 4.0 9 24
r 3.53916 0 1 tcp 1040 ------- 0 4.0 1.0 10 17
+ 3.53916 1 0 ack 40 ------- 0 1.0 4.0 10 25
- 3.53916 1 0 ack 40 ------- 0 1.0 4.0 10 25
r 3.548053 2 0 tcp 1040 ------- 0 4.0 1.0 11 18
+ 3.548053 0 1 tcp 1040 ------- 0 4.0 1.0 11 18
- 3.548053 0 1 tcp 1040 ------- 0 4.0 1.0 11 18
r 3.549267 1 0 ack 40 ------- 0 1.0 4.0 10 25
+ 3.549267 0 2 ack 40 ------- 0 1.0 4.0 10 25
- 3.549267 0 2 ack 40 ------- 0 1.0 4.0 10 25
r 3.560827 0 1 tcp 1040 ------- 0 4.0 1.0 11 18
+ 3.560827 1 0 ack 40 ------- 0 1.0 4.0 11 26
- 3.560827 1 0 ack 40 ------- 0 1.0 4.0 11 26
r 3.56972 2 0 tcp 1040 ------- 0 4.0 1.0 12 19
+ 3.56972 0 1 tcp 1040 ------- 0 4.0 1.0 12 19
- 3.56972 0 1 tcp 1040 ------- 0 4.0 1.0 12 19
r 3.570933 1 0 ack 40 ------- 0 1.0 4.0 11 26
+ 3.570933 0 2 ack 40 ------- 0 1.0 4.0 11 26
- 3.570933 0 2 ack 40 ------- 0 1.0 4.0 11 26
r 3.582493 0 1 tcp 1040 ------- 0 4.0 1.0 12 19
+ 3.582493 1 0 ack 40 ------- 0 1.0 4.0 12 27
- 3.582493 1 0 ack 40 ------- 0 1.0 4.0 12 27
r 3.591387 2 0 tcp 1040 ------- 0 4.0 1.0 13 20
+ 3.591387 0 1 tcp 1040 ------- 0 4.0 1.0 13 20
- 3.591387 0 1 tcp 1040 ------- 0 4.0 1.0 13 20
r 3.5926 1 0 ack 40 ------- 0 1.0 4.0 12 27
+ 3.5926 0 2 ack 40 ------- 0 1.0 4.0 12 27
- 3.5926 0 2 ack 40 ------- 0 1.0 4.0 12 27
r 3.60416 0 1 tcp 1040 ------- 0 4.0 1.0 13 20
+ 3.60416 1 0 ack 40 ------- 0 1.0 4.0 13 28
- 3.60416 1 0 ack 40 ------- 0 1.0 4.0 13 28
r 3.613053 2 0 tcp 1040 ------- 0 4.0 1.0 14 21
+ 3.613053 0 1 tcp 1040 ------- 0 4.0 1.0 14 21
- 3.613053 0 1 tcp 1040 ------- 0 4.0 1.0 14 21
r 3.614267 1 0 ack 40 ------- 0 1.0 4.0 13 28
+ 3.614267 0 2 ack 40 ------- 0 1.0 4.0 13 28
- 3.614267 0 2 ack 40 ------- 0 1.0 4.0 13 28
r 3.625827 0 1 tcp 1040 ------- 0 4.0 1.0 14 21
+ 3.625827 1 0 ack 40 ------- 0 1.0 4.0 14 29
- 3.625827 1 0 ack 40 ------- 0 1.0 4.0 14 29
r 3.6351 0 2 ack 40 ------- 0 1.0 4.0 7 22
+ 3.6351 2 3 ack 40 ------- 0 1.0 4.0 7 22
- 3.6351 2 3 ack 40 ------- 0 1.0 4.0 7 22
r 3.635933 1 0 ack 40 ------- 0 1.0 4.0 14 29
+ 3.635933 0 2 ack 40 ------- 0 1.0 4.0 14 29
- 3.635933 0 2 ack 40 ------- 0 1.0 4.0 14 29
r 3.656767 0 2 ack 40 ------- 0 1.0 4.0 8 23
+ 3.656767 2 3 ack 40 ------- 0 1.0 4.0 8 23
- 3.656767 2 3 ack 40 ------- 0 1.0 4.0 8 23
r 3.678433 0 2 ack 40 ------- 0 1.0 4.0 9 24
+ 3.678433 2 3 ack 40 ------- 0 1.0 4.0 9 24
- 3.678433 2 3 ack 40 ------- 0 1.0 4.0 9 24
r 3.7001 0 2 ack 40 ------- 0 1.0 4.0 10 25
+ 3.7001 2 3 ack 40 ------- 0 1.0 4.0 10 25
- 3.7001 2 3 ack 40 ------- 0 1.0 4.0 10 25
r 3.721767 0 2 ack 40 ------- 0 1.0 4.0 11 26
+ 3.721767 2 3 ack 40 ------- 0 1.0 4.0 11 26
- 3.721767 2 3 ack 40 ------- 0 1.0 4.0 11 26
r 3.743433 0 2 ack 40 ------- 0 1.0 4.0 12 27
+ 3.743433 2 3 ack 40 ------- 0 1.0 4.0 12 27
- 3.743433 2 3 ack 40 ------- 0 1.0 4.0 12 27
r 3.7651 0 2 ack 40 ------- 0 1.0 4.0 13 28
+ 3.7651 2 3 ack 40 ------- 0 1.0 4.0 13 28
- 3.7651 2 3 ack 40 ------- 0 1.0 4.0 13 28
r 3.785933 2 3 ack 40 ------- 0 1.0 4.0 7 22
+ 3.785933 3 4 ack 40 ------- 0 1.0 4.0 7 22
- 3.785933 3 4 ack 40 ------- 0 1.0 4.0 7 22
r 3.786767 0 2 ack 40 ------- 0 1.0 4.0 14 29
+ 3.786767 2 3 ack 40 ------- 0 1.0 4.0 14 29
- 3.786767 2 3 ack 40 ------- 0 1.0 4.0 14 29
r 3.8076 2 3 ack 40 ------- 0 1.0 4.0 8 23
+ 3.8076 3 4 ack 40 ------- 0 1.0 4.0 8 23
- 3.8076 3 4 ack 40 ------- 0 1.0 4.0 8 23
r 3.829267 2 3 ack 40 ------- 0 1.0 4.0 9 24
+ 3.829267 3 4 ack 40 ------- 0 1.0 4.0 9 24
- 3.829267 3 4 ack 40 ------- 0 1.0 4.0 9 24
r 3.83604 3 4 ack 40 ------- 0 1.0 4.0 7 22
+ 3.83604 4 3 tcp 1040 ------- 0 4.0 1.0 15 30
- 3.83604 4 3 tcp 1040 ------- 0 4.0 1.0 15 30
+ 3.83604 4 3 tcp 1040 ------- 0 4.0 1.0 16 31
- 3.838813 4 3 tcp 1040 ------- 0 4.0 1.0 16 31
r 3.850933 2 3 ack 40 ------- 0 1.0 4.0 10 25
+ 3.850933 3 4 ack 40 ------- 0 1.0 4.0 10 25
- 3.850933 3 4 ack 40 ------- 0 1.0 4.0 10 25
r 3.857707 3 4 ack 40 ------- 0 1.0 4.0 8 23
+ 3.857707 4 3 tcp 1040 ------- 0 4.0 1.0 17 32
- 3.857707 4 3 tcp 1040 ------- 0 4.0 1.0 17 32
+ 3.857707 4 3 tcp 1040 ------- 0 4.0 1.0 18 33
- 3.86048 4 3 tcp 1040 ------- 0 4.0 1.0 18 33
r 3.8726 2 3 ack 40 ------- 0 1.0 4.0 11 26
+ 3.8726 3 4 ack 40 ------- 0 1.0 4.0 11 26
- 3.8726 3 4 ack 40 ------- 0 1.0 4.0 11 26
r 3.879373 3 4 ack 40 ------- 0 1.0 4.0 9 24
+ 3.879373 4 3 tcp 1040 ------- 0 4.0 1.0 19 34
- 3.879373 4 3 tcp 1040 ------- 0 4.0 1.0 19 34
+ 3.879373 4 3 tcp 1040 ------- 0 4.0 1.0 20 35
- 3.882147 4 3 tcp 1040 ------- 0 4.0 1.0 20 35
r 3.888813 4 3 tcp 1040 ------- 0 4.0 1.0 15 30
+ 3.888813 3 2 tcp 1040 ------- 0 4.0 1.0 15 30
- 3.888813 3 2 tcp 1040 ------- 0 4.0 1.0 15 30
r 3.891587 4 3 tcp 1040 ------- 0 4.0 1.0 16 31
+ 3.891587 3 2 tcp 1040 ------- 0 4.0 1.0 16 31
r 3.894267 2 3 ack 40 ------- 0 1.0 4.0 12 27
+ 3.894267 3 4 ack 40 ------- 0 1.0 4.0 12 27
- 3.894267 3 4 ack 40 ------- 0 1.0 4.0 12 27
r 3.90104 3 4 ack 40 ------- 0 1.0 4.0 10 25
+ 3.90104 4 3 tcp 1040 ------- 0 4.0 1.0 21 36
- 3.90104 4 3 tcp 1040 ------- 0 4.0 1.0 21 36
+ 3.90104 4 3 tcp 1040 ------- 0 4.0 1.0 22 37
- 3.903813 4 3 tcp 1040 ------- 0 4.0 1.0 22 37
r 3.91048 4 3 tcp 1040 ------- 0 4.0 1.0 17 32
+ 3.91048 3 2 tcp 1040 ------- 0 4.0 1.0 17 32
- 3.91048 3 2 tcp 1040 ------- 0 4.0 1.0 16 31
r 3.913253 4 3 tcp 1040 ------- 0 4.0 1.0 18 33
+ 3.913253 3 2 tcp 1040 ------- 0 4.0 1.0 18 33
r 3.915933 2 3 ack 40 ------- 0 1.0 4.0 13 28
+ 3.915933 3 4 ack 40 ------- 0 1.0 4.0 13 28
- 3.915933 3 4 ack 40 ------- 0 1.0 4.0 13 28
r 3.922707 3 4 ack 40 ------- 0 1.0 4.0 11 26
+ 3.922707 4 3 tcp 1040 ------- 0 4.0 1.0 23 38
- 3.922707 4 3 tcp 1040 ------- 0 4.0 1.0 23 38
+ 3.922707 4 3 tcp 1040 ------- 0 4.0 1.0 24 39
- 3.92548 4 3 tcp 1040 ------- 0 4.0 1.0 24 39
r 3.932147 4 3 tcp 1040 ------- 0 4.0 1.0 19 34
+ 3.932147 3 2 tcp 1040 ------- 0 4.0 1.0 19 34
- 3.932147 3 2 tcp 1040 ------- 0 4.0 1.0 17 32
r 3.93492 4 3 tcp 1040 ------- 0 4.0 1.0 20 35
+ 3.93492 3 2 tcp 1040 ------- 0 4.0 1.0 20 35
r 3.9376 2 3 ack 40 ------- 0 1.0 4.0 14 29
+ 3.9376 3 4 ack 40 ------- 0 1.0 4.0 14 29
- 3.9376 3 4 ack 40 ------- 0 1.0 4.0 14 29
r 3.944373 3 4 ack 40 ------- 0 1.0 4.0 12 27
+ 3.944373 4 3 tcp 1040 ------- 0 4.0 1.0 25 40
- 3.944373 4 3 tcp 1040 ------- 0 4.0 1.0 25 40
+ 3.944373 4 3 tcp 1040 ------- 0 4.0 1.0 26 41
- 3.947147 4 3 tcp 1040 ------- 0 4.0 1.0 26 41
r 3.953813 4 3 tcp 1040 ------- 0 4.0 1.0 21 36
+ 3.953813 3 2 tcp 1040 ------- 0 4.0 1.0 21 36
- 3.953813 3 2 tcp 1040 ------- 0 4.0 1.0 18 33
r 3.956587 4 3 tcp 1040 ------- 0 4.0 1.0 22 37
+ 3.956587 3 2 tcp 1040 ------- 0 4.0 1.0 22 37
r 3.96604 3 4 ack 40 ------- 0 1.0 4.0 13 28
+ 3.96604 4 3 tcp 1040 ------- 0 4.0 1.0 27 42
- 3.96604 4 3 tcp 1040 ------- 0 4.0 1.0 27 42
+ 3.96604 4 3 tcp 1040 ------- 0 4.0 1.0 28 43
- 3.968813 4 3 tcp 1040 ------- 0 4.0 1.0 28 43
r 3.97548 4 3 tcp 1040 ------- 0 4.0 1.0 23 38
+ 3.97548 3 2 tcp 1040 ------- 0 4.0 1.0 23 38
- 3.97548 3 2 tcp 1040 ------- 0 4.0 1.0 19 34
r 3.978253 4 3 tcp 1040 ------- 0 4.0 1.0 24 39
+ 3.978253 3 2 tcp 1040 ------- 0 4.0 1.0 24 39
r 3.987707 3 4 ack 40 ------- 0 1.0 4.0 14 29
+ 3.987707 4 3 tcp 1040 ------- 0 4.0 1.0 29 44
- 3.987707 4 3 tcp 1040 ------- 0 4.0 1.0 29 44
+ 3.987707 4 3 tcp 1040 ------- 0 4.0 1.0 30 45
- 3.99048 4 3 tcp 1040 ------- 0 4.0 1.0 30 45
r 3.997147 4 3 tcp 1040 ------- 0 4.0 1.0 25 40
+ 3.997147 3 2 tcp 1040 ------- 0 4.0 1.0 25 40
- 3.997147 3 2 tcp 1040 ------- 0 4.0 1.0 20 35
r 3.99992 4 3 tcp 1040 ------- 0 4.0 1.0 26 41
+ 3.99992 3 2 tcp 1040 ------- 0 4.0 1.0 26 41
r 4.018813 4 3 tcp 1040 ------- 0 4.0 1.0 27 42
+ 4.018813 3 2 tcp 1040 ------- 0 4.0 1.0 27 42
- 4.018813 3 2 tcp 1040 ------- 0 4.0 1.0 21 36
r 4.021587 4 3 tcp 1040 ------- 0 4.0 1.0 28 43
+ 4.021587 3 2 tcp 1040 ------- 0 4.0 1.0 28 43
r 4.04048 4 3 tcp 1040 ------- 0 4.0 1.0 29 44
+ 4.04048 3 2 tcp 1040 ------- 0 4.0 1.0 29 44
- 4.04048 3 2 tcp 1040 ------- 0 4.0 1.0 22 37
r 4.043253 4 3 tcp 1040 ------- 0 4.0 1.0 30 45
+ 4.043253 3 2 tcp 1040 ------- 0 4.0 1.0 30 45
r 4.06048 3 2 tcp 1040 ------- 0 4.0 1.0 15 30
+ 4.06048 2 0 tcp 1040 ------- 0 4.0 1.0 15 30
- 4.06048 2 0 tcp 1040 ------- 0 4.0 1.0 15 30
- 4.062147 3 2 tcp 1040 ------- 0 4.0 1.0 23 38
r 4.082147 3 2 tcp 1040 ------- 0 4.0 1.0 16 31
+ 4.082147 2 0 tcp 1040 ------- 0 4.0 1.0 16 31
- 4.082147 2 0 tcp 1040 ------- 0 4.0 1.0 16 31
- 4.083813 3 2 tcp 1040 ------- 0 4.0 1.0 24 39
r 4.103813 3 2 tcp 1040 ------- 0 4.0 1.0 17 32
+ 4.103813 2 0 tcp 1040 ------- 0 4.0 1.0 17 32
- 4.103813 2 0 tcp 1040 ------- 0 4.0 1.0 17 32
- 4.10548 3 2 tcp 1040 ------- 0 4.0 1.0 25 40
r 4.12548 3 2 tcp 1040 ------- 0 4.0 1.0 18 33
+ 4.12548 2 0 tcp 1040 ------- 0 4.0 1.0 18 33
- 4.12548 2 0 tcp 1040 ------- 0 4.0 1.0 18 33
- 4.127147 3 2 tcp 1040 ------- 0 4.0 1.0 26 41
r 4.147147 3 2 tcp 1040 ------- 0 4.0 1.0 19 34
+ 4.147147 2 0 tcp 1040 ------- 0 4.0 1.0 19 34
- 4.147147 2 0 tcp 1040 ------- 0 4.0 1.0 19 34
- 4.148813 3 2 tcp 1040 ------- 0 4.0 1.0 27 42
r 4.168813 3 2 tcp 1040 ------- 0 4.0 1.0 20 35
+ 4.168813 2 0 tcp 1040 ------- 0 4.0 1.0 20 35
- 4.168813 2 0 tcp 1040 ------- 0 4.0 1.0 20 35
- 4.17048 3 2 tcp 1040 ------- 0 4.0 1.0 28 43
r 4.19048 3 2 tcp 1040 ------- 0 4.0 1.0 21 36
+ 4.19048 2 0 tcp 1040 ------- 0 4.0 1.0 21 36
- 4.19048 2 0 tcp 1040 ------- 0 4.0 1.0 21 36
- 4.192147 3 2 tcp 1040 ------- 0 4.0 1.0 29 44
r 4.212147 3 2 tcp 1040 ------- 0 4.0 1.0 22 37
+ 4.212147 2 0 tcp 1040 ------- 0 4.0 1.0 22 37
- 4.212147 2 0 tcp 1040 ------- 0 4.0 1.0 22 37
- 4.213813 3 2 tcp 1040 ------- 0 4.0 1.0 30 45
r 4.232147 2 0 tcp 1040 ------- 0 4.0 1.0 15 30
+ 4.232147 0 1 tcp 1040 ------- 0 4.0 1.0 15 30
- 4.232147 0 1 tcp 1040 ------- 0 4.0 1.0 15 30
r 4.233813 3 2 tcp 1040 ------- 0 4.0 1.0 23 38
+ 4.233813 2 0 tcp 1040 ------- 0 4.0 1.0 23 38
- 4.233813 2 0 tcp 1040 ------- 0 4.0 1.0 23 38
r 4.24492 0 1 tcp 1040 ------- 0 4.0 1.0 15 30
+ 4.24492 1 0 ack 40 ------- 0 1.0 4.0 15 46
- 4.24492 1 0 ack 40 ------- 0 1.0 4.0 15 46
r 4.253813 2 0 tcp 1040 ------- 0 4.0 1.0 16 31
+ 4.253813 0 1 tcp 1040 ------- 0 4.0 1.0 16 31
- 4.253813 0 1 tcp 1040 ------- 0 4.0 1.0 16 31
r 4.255027 1 0 ack 40 ------- 0 1.0 4.0 15 46
+ 4.255027 0 2 ack 40 ------- 0 1.0 4.0 15 46
- 4.255027 0 2 ack 40 ------- 0 1.0 4.0 15 46
r 4.25548 3 2 tcp 1040 ------- 0 4.0 1.0 24 39
+ 4.25548 2 0 tcp 1040 ------- 0 4.0 1.0 24 39
- 4.25548 2 0 tcp 1040 ------- 0 4.0 1.0 24 39
r 4.266587 0 1 tcp 1040 ------- 0 4.0 1.0 16 31
+ 4.266587 1 0 ack 40 ------- 0 1.0 4.0 16 47
- 4.266587 1 0 ack 40 ------- 0 1.0 4.0 16 47
r 4.27548 2 0 tcp 1040 ------- 0 4.0 1.0 17 32
+ 4.27548 0 1 tcp 1040 ------- 0 4.0 1.0 17 32
- 4.27548 0 1 tcp 1040 ------- 0 4.0 1.0 17 32
r 4.276693 1 0 ack 40 ------- 0 1.0 4.0 16 47
+ 4.276693 0 2 ack 40 ------- 0 1.0 4.0 16 47
- 4.276693 0 2 ack 40 ------- 0 1.0 4.0 16 47
r 4.277147 3 2 tcp 1040 ------- 0 4.0 1.0 25 40
+ 4.277147 2 0 tcp 1040 ------- 0 4.0 1.0 25 40
- 4.277147 2 0 tcp 1040 ------- 0 4.0 1.0 25 40
r 4.288253 0 1 tcp 1040 ------- 0 4.0 1.0 17 32
+ 4.288253 1 0 ack 40 ------- 0 1.0 4.0 17 48
- 4.288253 1 0 ack 40 ------- 0 1.0 4.0 17 48
r 4.297147 2 0 tcp 1040 ------- 0 4.0 1.0 18 33
+ 4.297147 0 1 tcp 1040 ------- 0 4.0 1.0 18 33
- 4.297147 0 1 tcp 1040 ------- 0 4.0 1.0 18 33
r 4.29836 1 0 ack 40 ------- 0 1.0 4.0 17 48
+ 4.29836 0 2 ack 40 ------- 0 1.0 4.0 17 48
- 4.29836 0 2 ack 40 ------- 0 1.0 4.0 17 48
r 4.298813 3 2 tcp 1040 ------- 0 4.0 1.0 26 41
+ 4.298813 2 0 tcp 1040 ------- 0 4.0 1.0 26 41
- 4.298813 2 0 tcp 1040 ------- 0 4.0 1.0 26 41
r 4.30992 0 1 tcp 1040 ------- 0 4.0 1.0 18 33
+ 4.30992 1 0 ack 40 ------- 0 1.0 4.0 18 49
- 4.30992 1 0 ack 40 ------- 0 1.0 4.0 18 49
r 4.318813 2 0 tcp 1040 ------- 0 4.0 1.0 19 34
+ 4.318813 0 1 tcp 1040 ------- 0 4.0 1.0 19 34
- 4.318813 0 1 tcp 1040 ------- 0 4.0 1.0 19 34
r 4.320027 1 0 ack 40 ------- 0 1.0 4.0 18 49
+ 4.320027 0 2 ack 40 ------- 0 1.0 4.0 18 49
- 4.320027 0 2 ack 40 ------- 0 1.0 4.0 18 49
r 4.32048 3 2 tcp 1040 ------- 0 4.0 1.0 27 42
+ 4.32048 2 0 tcp 1040 ------- 0 4.0 1.0 27 42
- 4.32048 2 0 tcp 1040 ------- 0 4.0 1.0 27 42
r 4.331587 0 1 tcp 1040 ------- 0 4.0 1.0 19 34
+ 4.331587 1 0 ack 40 ------- 0 1.0 4.0 19 50
- 4.331587 1 0 ack 40 ------- 0 1.0 4.0 19 50
r 4.34048 2 0 tcp 1040 ------- 0 4.0 1.0 20 35
+ 4.34048 0 1 tcp 1040 ------- 0 4.0 1.0 20 35
- 4.34048 0 1 tcp 1040 ------- 0 4.0 1.0 20 35
r 4.341693 1 0 ack 40 ------- 0 1.0 4.0 19 50
+ 4.341693 0 2 ack 40 ------- 0 1.0 4.0 19 50
- 4.341693 0 2 ack 40 ------- 0 1.0 4.0 19 50
r 4.342147 3 2 tcp 1040 ------- 0 4.0 1.0 28 43
+ 4.342147 2 0 tcp 1040 ------- 0 4.0 1.0 28 43
- 4.342147 2 0 tcp 1040 ------- 0 4.0 1.0 28 43
r 4.353253 0 1 tcp 1040 ------- 0 4.0 1.0 20 35
+ 4.353253 1 0 ack 40 ------- 0 1.0 4.0 20 51
- 4.353253 1 0 ack 40 ------- 0 1.0 4.0 20 51
r 4.362147 2 0 tcp 1040 ------- 0 4.0 1.0 21 36
+ 4.362147 0 1 tcp 1040 ------- 0 4.0 1.0 21 36
- 4.362147 0 1 tcp 1040 ------- 0 4.0 1.0 21 36
r 4.36336 1 0 ack 40 ------- 0 1.0 4.0 20 51
+ 4.36336 0 2 ack 40 ------- 0 1.0 4.0 20 51
- 4.36336 0 2 ack 40 ------- 0 1.0 4.0 20 51
r 4.363813 3 2 tcp 1040 ------- 0 4.0 1.0 29 44
+ 4.363813 2 0 tcp 1040 ------- 0 4.0 1.0 29 44
- 4.363813 2 0 tcp 1040 ------- 0 4.0 1.0 29 44
r 4.37492 0 1 tcp 1040 ------- 0 4.0 1.0 21 36
+ 4.37492 1 0 ack 40 ------- 0 1.0 4.0 21 52
- 4.37492 1 0 ack 40 ------- 0 1.0 4.0 21 52
r 4.383813 2 0 tcp 1040 ------- 0 4.0 1.0 22 37
+ 4.383813 0 1 tcp 1040 ------- 0 4.0 1.0 22 37
- 4.383813 0 1 tcp 1040 ------- 0 4.0 1.0 22 37
r 4.385027 1 0 ack 40 ------- 0 1.0 4.0 21 52
+ 4.385027 0 2 ack 40 ------- 0 1.0 4.0 21 52
- 4.385027 0 2 ack 40 ------- 0 1.0 4.0 21 52
r 4.38548 3 2 tcp 1040 ------- 0 4.0 1.0 30 45
+ 4.38548 2 0 tcp 1040 ------- 0 4.0 1.0 30 45
- 4.38548 2 0 tcp 1040 ------- 0 4.0 1.0 30 45
r 4.396587 0 1 tcp 1040 ------- 0 4.0 1.0 22 37
+ 4.396587 1 0 ack 40 ------- 0 1.0 4.0 22 53
- 4.396587 1 0 ack 40 ------- 0 1.0 4.0 22 53
r 4.40548 2 0 tcp 1040 ------- 0 4.0 1.0 23 38
+ 4.40548 0 1 tcp 1040 ------- 0 4.0 1.0 23 38
- 4.40548 0 1 tcp 1040 ------- 0 4.0 1.0 23 38
r 4.40586 0 2 ack 40 ------- 0 1.0 4.0 15 46
+ 4.40586 2 3 ack 40 ------- 0 1.0 4.0 15 46
- 4.40586 2 3 ack 40 ------- 0 1.0 4.0 15 46
r 4.406693 1 0 ack 40 ------- 0 1.0 4.0 22 53
+ 4.406693 0 2 ack 40 ------- 0 1.0 4.0 22 53
- 4.406693 0 2 ack 40 ------- 0 1.0 4.0 22 53
r 4.418253 0 1 tcp 1040 ------- 0 4.0 1.0 23 38
+ 4.418253 1 0 ack 40 ------- 0 1.0 4.0 23 54
- 4.418253 1 0 ack 40 ------- 0 1.0 4.0 23 54
r 4.427147 2 0 tcp 1040 ------- 0 4.0 1.0 24 39
+ 4.427147 0 1 tcp 1040 ------- 0 4.0 1.0 24 39
- 4.427147 0 1 tcp 1040 ------- 0 4.0 1.0 24 39
r 4.427527 0 2 ack 40 ------- 0 1.0 4.0 16 47
+ 4.427527 2 3 ack 40 ------- 0 1.0 4.0 16 47
- 4.427527 2 3 ack 40 ------- 0 1.0 4.0 16 47
r 4.42836 1 0 ack 40 ------- 0 1.0 4.0 23 54
+ 4.42836 0 2 ack 40 ------- 0 1.0 4.0 23 54
- 4.42836 0 2 ack 40 ------- 0 1.0 4.0 23 54
r 4.43992 0 1 tcp 1040 ------- 0 4.0 1.0 24 39
+ 4.43992 1 0 ack 40 ------- 0 1.0 4.0 24 55
- 4.43992 1 0 ack 40 ------- 0 1.0 4.0 24 55
r 4.448813 2 0 tcp 1040 ------- 0 4.0 1.0 25 40
+ 4.448813 0 1 tcp 1040 ------- 0 4.0 1.0 25 40
- 4.448813 0 1 tcp 1040 ------- 0 4.0 1.0 25 40
r 4.449193 0 2 ack 40 ------- 0 1.0 4.0 17 48
+ 4.449193 2 3 ack 40 ------- 0 1.0 4.0 17 48
- 4.449193 2 3 ack 40 ------- 0 1.0 4.0 17 48
r 4.450027 1 0 ack 40 ------- 0 1.0 4.0 24 55
+ 4.450027 0 2 ack 40 ------- 0 1.0 4.0 24 55
- 4.450027 0 2 ack 40 ------- 0 1.0 4.0 24 55
r 4.461587 0 1 tcp 1040 ------- 0 4.0 1.0 25 40
+ 4.461587 1 0 ack 40 ------- 0 1.0 4.0 25 56
- 4.461587 1 0 ack 40 ------- 0 1.0 4.0 25 56
r 4.47048 2 0 tcp 1040 ------- 0 4.0 1.0 26 41
+ 4.47048 0 1 tcp 1040 ------- 0 4.0 1.0 26 41
- 4.47048 0 1 tcp 1040 ------- 0 4.0 1.0 26 41
r 4.47086 0 2 ack 40 ------- 0 1.0 4.0 18 49
+ 4.47086 2 3 ack 40 ------- 0 1.0 4.0 18 49
- 4.47086 2 3 ack 40 ------- 0 1.0 4.0 18 49
r 4.471693 1 0 ack 40 ------- 0 1.0 4.0 25 56
+ 4.471693 0 2 ack 40 ------- 0 1.0 4.0 25 56
- 4.471693 0 2 ack 40 ------- 0 1.0 4.0 25 56
r 4.483253 0 1 tcp 1040 ------- 0 4.0 1.0 26 41
+ 4.483253 1 0 ack 40 ------- 0 1.0 4.0 26 57
- 4.483253 1 0 ack 40 ------- 0 1.0 4.0 26 57
r 4.492147 2 0 tcp 1040 ------- 0 4.0 1.0 27 42
+ 4.492147 0 1 tcp 1040 ------- 0 4.0 1.0 27 42
- 4.492147 0 1 tcp 1040 ------- 0 4.0 1.0 27 42
r 4.492527 0 2 ack 40 ------- 0 1.0 4.0 19 50
+ 4.492527 2 3 ack 40 ------- 0 1.0 4.0 19 50
- 4.492527 2 3 ack 40 ------- 0 1.0 4.0 19 50
r 4.49336 1 0 ack 40 ------- 0 1.0 4.0 26 57
+ 4.49336 0 2 ack 40 ------- 0 1.0 4.0 26 57
- 4.49336 0 2 ack 40 ------- 0 1.0 4.0 26 57
r 4.50492 0 1 tcp 1040 ------- 0 4.0 1.0 27 42
+ 4.50492 1 0 ack 40 ------- 0 1.0 4.0 27 58
- 4.50492 1 0 ack 40 ------- 0 1.0 4.0 27 58
r 4.513813 2 0 tcp 1040 ------- 0 4.0 1.0 28 43
+ 4.513813 0 1 tcp 1040 ------- 0 4.0 1.0 28 43
- 4.513813 0 1 tcp 1040 ------- 0 4.0 1.0 28 43
r 4.514193 0 2 ack 40 ------- 0 1.0 4.0 20 51
+ 4.514193 2 3 ack 40 ------- 0 1.0 4.0 20 51
- 4.514193 2 3 ack 40 ------- 0 1.0 4.0 20 51
r 4.515027 1 0 ack 40 ------- 0 1.0 4.0 27 58
+ 4.515027 0 2 ack 40 ------- 0 1.0 4.0 27 58
- 4.515027 0 2 ack 40 ------- 0 1.0 4.0 27 58
r 4.526587 0 1 tcp 1040 ------- 0 4.0 1.0 28 43
+ 4.526587 1 0 ack 40 ------- 0 1.0 4.0 28 59
- 4.526587 1 0 ack 40 ------- 0 1.0 4.0 28 59
r 4.53548 2 0 tcp 1040 ------- 0 4.0 1.0 29 44
+ 4.53548 0 1 tcp 1040 ------- 0 4.0 1.0 29 44
- 4.53548 0 1 tcp 1040 ------- 0 4.0 1.0 29 44
r 4.53586 0 2 ack 40 ------- 0 1.0 4.0 21 52
+ 4.53586 2 3 ack 40 ------- 0 1.0 4.0 21 52
- 4.53586 2 3 ack 40 ------- 0 1.0 4.0 21 52
r 4.536693 1 0 ack 40 ------- 0 1.0 4.0 28 59
+ 4.536693 0 2 ack 40 ------- 0 1.0 4.0 28 59
- 4.536693 0 2 ack 40 ------- 0 1.0 4.0 28 59
r 4.548253 0 1 tcp 1040 ------- 0 4.0 1.0 29 44
+ 4.548253 1 0 ack 40 ------- 0 1.0 4.0 29 60
- 4.548253 1 0 ack 40 ------- 0 1.0 4.0 29 60
r 4.556693 2 3 ack 40 ------- 0 1.0 4.0 15 46
+ 4.556693 3 4 ack 40 ------- 0 1.0 4.0 15 46
- 4.556693 3 4 ack 40 ------- 0 1.0 4.0 15 46
r 4.557147 2 0 tcp 1040 ------- 0 4.0 1.0 30 45
+ 4.557147 0 1 tcp 1040 ------- 0 4.0 1.0 30 45
- 4.557147 0 1 tcp 1040 ------- 0 4.0 1.0 30 45
r 4.557527 0 2 ack 40 ------- 0 1.0 4.0 22 53
+ 4.557527 2 3 ack 40 ------- 0 1.0 4.0 22 53
- 4.557527 2 3 ack 40 ------- 0 1.0 4.0 22 53