+ 0.8 4 3 tcp 40 ------- 0 4.0 1.0 0 0
- 0.8 4 3 tcp 40 ------- 0 4.0 1.0 0 0
r 0.830107 4 3 tcp 40 ------- 0 4.0 1.0 0 0
+ 0.830107 3 2 tcp 40 ------- 0 4.0 1.0 0 0
- 0.830107 3 2 tcp 40 ------- 0 4.0 1.0 0 0
r 0.98094 3 2 tcp 40 ------- 0 4.0 1.0 0 0
+ 0.98094 2 0 tcp 40 ------- 0 4.0 1.0 0 0
- 0.98094 2 0 tcp 40 ------- 0 4.0 1.0 0 0
r 1.131773 2 0 tcp 40 ------- 0 4.0 1.0 0 0
+ 1.131773 0 1 tcp 40 ------- 0 4.0 1.0 0 0
- 1.131773 0 1 tcp 40 ------- 0 4.0 1.0 0 0
r 1.14188 0 1 tcp 40 ------- 0 4.0 1.0 0 0
+ 1.14188 1 0 ack 40 ------- 0 1.0 4.0 0 1
- 1.14188 1 0 ack 40 ------- 0 1.0 4.0 0 1
r 1.151987 1 0 ack 40 ------- 0 1.0 4.0 0 1
+ 1.151987 0 2 ack 40 ------- 0 1.0 4.0 0 1
- 1.151987 0 2 ack 40 ------- 0 1.0 4.0 0 1
r 1.30282 0 2 ack 40 ------- 0 1.0 4.0 0 1
+ 1.30282 2 3 ack 40 ------- 0 1.0 4.0 0 1
- 1.30282 2 3 ack 40 ------- 0 1.0 4.0 0 1
r 1.453653 2 3 ack 40 ------- 0 1.0 4.0 0 1
+ 1.453653 3 4 ack 40 ------- 0 1.0 4.0 0 1
- 1.453653 3 4 ack 40 ------- 0 1.0 4.0 0 1
r 1.48376 3 4 ack 40 ------- 0 1.0 4.0 0 1
+ 1.48376 4 3 tcp 1040 ------- 0 4.0 1.0 1 2
- 1.48376 4 3 tcp 1040 ------- 0 4.0 1.0 1 2
+ 1.48376 4 3 tcp 1040 ------- 0 4.0 1.0 2 3
- 1.486533 4 3 tcp 1040 ------- 0 4.0 1.0 2 3
r 1.516533 4 3 tcp 1040 ------- 0 4.0 1.0 1 2
+ 1.516533 3 2 tcp 1040 ------- 0 4.0 1.0 1 2
- 1.516533 3 2 tcp 1040 ------- 0 4.0 1.0 1 2
r 1.519307 4 3 tcp 1040 ------- 0 4.0 1.0 2 3
+ 1.519307 3 2 tcp 1040 ------- 0 4.0 1.0 2 3
- 1.5382 3 2 tcp 1040 ------- 0 4.0 1.0 2 3
r 1.6882 3 2 tcp 1040 ------- 0 4.0 1.0 1 2
+ 1.6882 2 0 tcp 1040 ------- 0 4.0 1.0 1 2
- 1.6882 2 0 tcp 1040 ------- 0 4.0 1.0 1 2
r 1.709867 3 2 tcp 1040 ------- 0 4.0 1.0 2 3
+ 1.709867 2 0 tcp 1040 ------- 0 4.0 1.0 2 3
- 1.709867 2 0 tcp 1040 ------- 0 4.0 1.0 2 3
r 1.859867 2 0 tcp 1040 ------- 0 4.0 1.0 1 2
+ 1.859867 0 1 tcp 1040 ------- 0 4.0 1.0 1 2
- 1.859867 0 1 tcp 1040 ------- 0 4.0 1.0 1 2
r 1.87264 0 1 tcp 1040 ------- 0 4.0 1.0 1 2
+ 1.87264 1 0 ack 40 ------- 0 1.0 4.0 1 4
- 1.87264 1 0 ack 40 ------- 0 1.0 4.0 1 4
r 1.881533 2 0 tcp 1040 ------- 0 4.0 1.0 2 3
+ 1.881533 0 1 tcp 1040 ------- 0 4.0 1.0 2 3
- 1.881533 0 1 tcp 1040 ------- 0 4.0 1.0 2 3
r 1.882747 1 0 ack 40 ------- 0 1.0 4.0 1 4
+ 1.882747 0 2 ack 40 ------- 0 1.0 4.0 1 4
- 1.882747 0 2 ack 40 ------- 0 1.0 4.0 1 4
r 1.894307 0 1 tcp 1040 ------- 0 4.0 1.0 2 3
+ 1.894307 1 0 ack 40 ------- 0 1.0 4.0 2 5
- 1.894307 1 0 ack 40 ------- 0 1.0 4.0 2 5
r 1.904413 1 0 ack 40 ------- 0 1.0 4.0 2 5
+ 1.904413 0 2 ack 40 ------- 0 1.0 4.0 2 5
- 1.904413 0 2 ack 40 ------- 0 1.0 4.0 2 5
r 2.03358 0 2 ack 40 ------- 0 1.0 4.0 1 4
+ 2.03358 2 3 ack 40 ------- 0 1.0 4.0 1 4
- 2.03358 2 3 ack 40 ------- 0 1.0 4.0 1 4
r 2.055247 0 2 ack 40 ------- 0 1.0 4.0 2 5
+ 2.055247 2 3 ack 40 ------- 0 1.0 4.0 2 5
- 2.055247 2 3 ack 40 ------- 0 1.0 4.0 2 5
r 2.184413 2 3 ack 40 ------- 0 1.0 4.0 1 4
+ 2.184413 3 4 ack 40 ------- 0 1.0 4.0 1 4
- 2.184413 3 4 ack 40 ------- 0 1.0 4.0 1 4
r 2.20608 2 3 ack 40 ------- 0 1.0 4.0 2 5
+ 2.20608 3 4 ack 40 ------- 0 1.0 4.0 2 5
- 2.20608 3 4 ack 40 ------- 0 1.0 4.0 2 5
r 2.21452 3 4 ack 40 ------- 0 1.0 4.0 1 4
+ 2.21452 4 3 tcp 1040 ------- 0 4.0 1.0 3 6
- 2.21452 4 3 tcp 1040 ------- 0 4.0 1.0 3 6
+ 2.21452 4 3 tcp 1040 ------- 0 4.0 1.0 4 7
- 2.217293 4 3 tcp 1040 ------- 0 4.0 1.0 4 7
r 2.236187 3 4 ack 40 ------- 0 1.0 4.0 2 5
+ 2.236187 4 3 tcp 1040 ------- 0 4.0 1.0 5 8
- 2.236187 4 3 tcp 1040 ------- 0 4.0 1.0 5 8
+ 2.236187 4 3 tcp 1040 ------- 0 4.0 1.0 6 9
- 2.23896 4 3 tcp 1040 ------- 0 4.0 1.0 6 9
r 2.247293 4 3 tcp 1040 ------- 0 4.0 1.0 3 6
+ 2.247293 3 2 tcp 1040 ------- 0 4.0 1.0 3 6
- 2.247293 3 2 tcp 1040 ------- 0 4.0 1.0 3 6
r 2.250067 4 3 tcp 1040 ------- 0 4.0 1.0 4 7
+ 2.250067 3 2 tcp 1040 ------- 0 4.0 1.0 4 7
r 2.26896 4 3 tcp 1040 ------- 0 4.0 1.0 5 8
+ 2.26896 3 2 tcp 1040 ------- 0 4.0 1.0 5 8
- 2.26896 3 2 tcp 1040 ------- 0 4.0 1.0 4 7
r 2.271733 4 3 tcp 1040 ------- 0 4.0 1.0 6 9
+ 2.271733 3 2 tcp 1040 ------- 0 4.0 1.0 6 9
- 2.290627 3 2 tcp 1040 ------- 0 4.0 1.0 5 8
- 2.312293 3 2 tcp 1040 ------- 0 4.0 1.0 6 9
r 2.41896 3 2 tcp 1040 ------- 0 4.0 1.0 3 6
+ 2.41896 2 0 tcp 1040 ------- 0 4.0 1.0 3 6
- 2.41896 2 0 tcp 1040 ------- 0 4.0 1.0 3 6
r 2.440627 3 2 tcp 1040 ------- 0 4.0 1.0 4 7
+ 2.440627 2 0 tcp 1040 ------- 0 4.0 1.0 4 7
- 2.440627 2 0 tcp 1040 ------- 0 4.0 1.0 4 7
r 2.462293 3 2 tcp 1040 ------- 0 4.0 1.0 5 8
+ 2.462293 2 0 tcp 1040 ------- 0 4.0 1.0 5 8
- 2.462293 2 0 tcp 1040 ------- 0 4.0 1.0 5 8
r 2.48396 3 2 tcp 1040 ------- 0 4.0 1.0 6 9
+ 2.48396 2 0 tcp 1040 ------- 0 4.0 1.0 6 9
- 2.48396 2 0 tcp 1040 ------- 0 4.0 1.0 6 9
r 2.590627 2 0 tcp 1040 ------- 0 4.0 1.0 3 6
+ 2.590627 0 1 tcp 1040 ------- 0 4.0 1.0 3 6
- 2.590627 0 1 tcp 1040 ------- 0 4.0 1.0 3 6
r 2.6034 0 1 tcp 1040 ------- 0 4.0 1.0 3 6
+ 2.6034 1 0 ack 40 ------- 0 1.0 4.0 3 10
- 2.6034 1 0 ack 40 ------- 0 1.0 4.0 3 10
r 2.612293 2 0 tcp 1040 ------- 0 4.0 1.0 4 7
+ 2.612293 0 1 tcp 1040 ------- 0 4.0 1.0 4 7
- 2.612293 0 1 tcp 1040 ------- 0 4.0 1.0 4 7
r 2.613507 1 0 ack 40 ------- 0 1.0 4.0 3 10
+ 2.613507 0 2 ack 40 ------- 0 1.0 4.0 3 10
- 2.613507 0 2 ack 40 ------- 0 1.0 4.0 3 10
r 2.625067 0 1 tcp 1040 ------- 0 4.0 1.0 4 7
+ 2.625067 1 0 ack 40 ------- 0 1.0 4.0 4 11
- 2.625067 1 0 ack 40 ------- 0 1.0 4.0 4 11
r 2.63396 2 0 tcp 1040 ------- 0 4.0 1.0 5 8
+ 2.63396 0 1 tcp 1040 ------- 0 4.0 1.0 5 8
- 2.63396 0 1 tcp 1040 ------- 0 4.0 1.0 5 8
r 2.635173 1 0 ack 40 ------- 0 1.0 4.0 4 11
+ 2.635173 0 2 ack 40 ------- 0 1.0 4.0 4 11
- 2.635173 0 2 ack 40 ------- 0 1.0 4.0 4 11
r 2.646733 0 1 tcp 1040 ------- 0 4.0 1.0 5 8
+ 2.646733 1 0 ack 40 ------- 0 1.0 4.0 5 12
- 2.646733 1 0 ack 40 ------- 0 1.0 4.0 5 12
r 2.655627 2 0 tcp 1040 ------- 0 4.0 1.0 6 9
+ 2.655627 0 1 tcp 1040 ------- 0 4.0 1.0 6 9
- 2.655627 0 1 tcp 1040 ------- 0 4.0 1.0 6 9
r 2.65684 1 0 ack 40 ------- 0 1.0 4.0 5 12
+ 2.65684 0 2 ack 40 ------- 0 1.0 4.0 5 12
- 2.65684 0 2 ack 40 ------- 0 1.0 4.0 5 12
r 2.6684 0 1 tcp 1040 ------- 0 4.0 1.0 6 9
+ 2.6684 1 0 ack 40 ------- 0 1.0 4.0 6 13
- 2.6684 1 0 ack 40 ------- 0 1.0 4.0 6 13
r 2.678507 1 0 ack 40 ------- 0 1.0 4.0 6 13
+ 2.678507 0 2 ack 40 ------- 0 1.0 4.0 6 13
- 2.678507 0 2 ack 40 ------- 0 1.0 4.0 6 13
r 2.76434 0 2 ack 40 ------- 0 1.0 4.0 3 10
+ 2.76434 2 3 ack 40 ------- 0 1.0 4.0 3 10
- 2.76434 2 3 ack 40 ------- 0 1.0 4.0 3 10
r 2.786007 0 2 ack 40 ------- 0 1.0 4.0 4 11
+ 2.786007 2 3 ack 40 ------- 0 1.0 4.0 4 11
- 2.786007 2 3 ack 40 ------- 0 1.0 4.0 4 11
r 2.807673 0 2 ack 40 ------- 0 1.0 4.0 5 12
+ 2.807673 2 3 ack 40 ------- 0 1.0 4.0 5 12
- 2.807673 2 3 ack 40 ------- 0 1.0 4.0 5 12
r 2.82934 0 2 ack 40 ------- 0 1.0 4.0 6 13
+ 2.82934 2 3 ack 40 ------- 0 1.0 4.0 6 13
- 2.82934 2 3 ack 40 ------- 0 1.0 4.0 6 13
r 2.915173 2 3 ack 40 ------- 0 1.0 4.0 3 10
+ 2.915173 3 4 ack 40 ------- 0 1.0 4.0 3 10
- 2.915173 3 4 ack 40 ------- 0 1.0 4.0 3 10
r 2.93684 2 3 ack 40 ------- 0 1.0 4.0 4 11
+ 2.93684 3 4 ack 40 ------- 0 1.0 4.0 4 11
- 2.93684 3 4 ack 40 ------- 0 1.0 4.0 4 11
r 2.94528 3 4 ack 40 ------- 0 1.0 4.0 3 10
+ 2.94528 4 3 tcp 1040 ------- 0 4.0 1.0 7 14
- 2.94528 4 3 tcp 1040 ------- 0 4.0 1.0 7 14
+ 2.94528 4 3 tcp 1040 ------- 0 4.0 1.0 8 15
- 2.948053 4 3 tcp 1040 ------- 0 4.0 1.0 8 15
r 2.958507 2 3 ack 40 ------- 0 1.0 4.0 5 12
+ 2.958507 3 4 ack 40 ------- 0 1.0 4.0 5 12
- 2.958507 3 4 ack 40 ------- 0 1.0 4.0 5 12
r 2.966947 3 4 ack 40 ------- 0 1.0 4.0 4 11
+ 2.966947 4 3 tcp 1040 ------- 0 4.0 1.0 9 16
- 2.966947 4 3 tcp 1040 ------- 0 4.0 1.0 9 16
+ 2.966947 4 3 tcp 1040 ------- 0 4.0 1.0 10 17
- 2.96972 4 3 tcp 1040 ------- 0 4.0 1.0 10 17
r 2.978053 4 3 tcp 1040 ------- 0 4.0 1.0 7 14
+ 2.978053 3 2 tcp 1040 ------- 0 4.0 1.0 7 14
- 2.978053 3 2 tcp 1040 ------- 0 4.0 1.0 7 14
r 2.980173 2 3 ack 40 ------- 0 1.0 4.0 6 13
+ 2.980173 3 4 ack 40 ------- 0 1.0 4.0 6 13
- 2.980173 3 4 ack 40 ------- 0 1.0 4.0 6 13
r 2.980827 4 3 tcp 1040 ------- 0 4.0 1.0 8 15
+ 2.980827 3 2 tcp 1040 ------- 0 4.0 1.0 8 15
r 2.988613 3 4 ack 40 ------- 0 1.0 4.0 5 12
+ 2.988613 4 3 tcp 1040 ------- 0 4.0 1.0 11 18
- 2.988613 4 3 tcp 1040 ------- 0 4.0 1.0 11 18
+ 2.988613 4 3 tcp 1040 ------- 0 4.0 1.0 12 19
- 2.991387 4 3 tcp 1040 ------- 0 4.0 1.0 12 19
r 2.99972 4 3 tcp 1040 ------- 0 4.0 1.0 9 16
+ 2.99972 3 2 tcp 1040 ------- 0 4.0 1.0 9 16
- 2.99972 3 2 tcp 1040 ------- 0 4.0 1.0 8 15
r 3.002493 4 3 tcp 1040 ------- 0 4.0 1.0 10 17
+ 3.002493 3 2 tcp 1040 ------- 0 4.0 1.0 10 17
r 3.01028 3 4 ack 40 ------- 0 1.0 4.0 6 13
+ 3.01028 4 3 tcp 1040 ------- 0 4.0 1.0 13 20
- 3.01028 4 3 tcp 1040 ------- 0 4.0 1.0 13 20
+ 3.01028 4 3 tcp 1040 ------- 0 4.0 1.0 14 21
- 3.013053 4 3 tcp 1040 ------- 0 4.0 1.0 14 21
r 3.021387 4 3 tcp 1040 ------- 0 4.0 1.0 11 18
+ 3.021387 3 2 tcp 1040 ------- 0 4.0 1.0 11 18
- 3.021387 3 2 tcp 1040 ------- 0 4.0 1.0 9 16
r 3.02416 4 3 tcp 1040 ------- 0 4.0 1.0 12 19
+ 3.02416 3 2 tcp 1040 ------- 0 4.0 1.0 12 19
r 3.043053 4 3 tcp 1040 ------- 0 4.0 1.0 13 20
+ 3.043053 3 2 tcp 1040 ------- 0 4.0 1.0 13 20
- 3.043053 3 2 tcp 1040 ------- 0 4.0 1.0 10 17
r 3.045827 4 3 tcp 1040 ------- 0 4.0 1.0 14 21
+ 3.045827 3 2 tcp 1040 ------- 0 4.0 1.0 14 21
- 3.06472 3 2 tcp 1040 ------- 0 4.0 1.0 11 18
- 3.086387 3 2 tcp 1040 ------- 0 4.0 1.0 12 19
- 3.108053 3 2 tcp 1040 ------- 0 4.0 1.0 13 20
- 3.12972 3 2 tcp 1040 ------- 0 4.0 1.0 14 21
r 3.14972 3 2 tcp 1040 ------- 0 4.0 1.0 7 14
+ 3.14972 2 0 tcp 1040 ------- 0 4.0 1.0 7 14
- 3.14972 2 0 tcp 1040 ------- 0 4.0 1.0 7 14
r 3.171387 3 2 tcp 1040 ------- 0 4.0 1.0 8 15
+ 3.171387 2 0 tcp 1040 ------- 0 4.0 1.0 8 15
- 3.171387 2 0 tcp 1040 ------- 0 4.0 1.0 8 15
r 3.193053 3 2 tcp 1040 ------- 0 4.0 1.0 9 16
+ 3.193053 2 0 tcp 1040 ------- 0 4.0 1.0 9 16
- 3.193053 2 0 tcp 1040 ------- 0 4.0 1.0 9 16
r 3.21472 3 2 tcp 1040 ------- 0 4.0 1.0 10 17
+ 3.21472 2 0 tcp 1040 ------- 0 4.0 1.0 10 17
- 3.21472 2 0 tcp 1040 ------- 0 4.0 1.0 10 17
r 3.236387 3 2 tcp 1040 ------- 0 4.0 1.0 11 18
+ 3.236387 2 0 tcp 1040 ------- 0 4.0 1.0 11 18
- 3.236387 2 0 tcp 1040 ------- 0 4.0 1.0 11 18
r 3.258053 3 2 tcp 1040 ------- 0 4.0 1.0 12 19
+ 3.258053 2 0 tcp 1040 ------- 0 4.0 1.0 12 19
- 3.258053 2 0 tcp 1040 ------- 0 4.0 1.0 12 19
r 3.27972 3 2 tcp 1040 ------- 0 4.0 1.0 13 20
+ 3.27972 2 0 tcp 1040 ------- 0 4.0 1.0 13 20
- 3.27972 2 0 tcp 1040 ------- 0 4.0 1.0 13 20
r 3.301387 3 2 tcp 1040 ------- 0 4.0 1.0 14 21
+ 3.301387 2 0 tcp 1040 ------- 0 4.0 1.0 14 21
- 3.301387 2 0 tcp 1040 ------- 0 4.0 1.0 14 21
r 3.321387 2 0 tcp 1040 ------- 0 4.0 1.0 7 14
+ 3.321387 0 1 tcp 1040 ------- 0 4.0 1.0 7 14
- 3.321387 0 1 tcp 1040 ------- 0 4.0 1.0 7 14
r 3.33416 0 1 tcp 1040 ------- 0 4.0 1.0 7 14
+ 3.33416 1 0 ack 40 ------- 0 1.0 4.0 7 22
- 3.33416 1 0 ack 40 ------- 0 1.0 4.0 7 22
r 3.343053 2 0 tcp 1040 ------- 0 4.0 1.0 8 15
+ 3.343053 0 1 tcp 1040 ------- 0 4.0 1.0 8 15
- 3.343053 0 1 tcp 1040 ------- 0 4.0 1.0 8 15
r 3.344267 1 0 ack 40 ------- 0 1.0 4.0 7 22
+ 3.344267 0 2 ack 40 ------- 0 1.0 4.0 7 22
- 3.344267 0 2 ack 40 ------- 0 1.0 4.0 7 22
r 3.355827 0 1 tcp 1040 ------- 0 4.0 1.0 8 15
+ 3.355827 1 0 ack 40 ------- 0 1.0 4.0 8 23
- 3.355827 1 0 ack 40 ------- 0 1.0 4.0 8 23
r 3.36472 2 0 tcp 1040 ------- 0 4.0 1.0 9 16
+ 3.36472 0 1 tcp 1040 ------- 0 4.0 1.0 9 16
- 3.36472 0 1 tcp 1040 ------- 0 4.0 1.0 9 16
r 3.365933 1 0 ack 40 ------- 0 1.0 4.0 8 23
+ 3.365933 0 2 ack 40 ------- 0 1.0 4.0 8 23
- 3.365933 0 2 ack 40 ------- 0 1.0 4.0 8 23
r 3.377493 0 1 tcp 1040 ------- 0 4.0 1.0 9 16
+ 3.377493 1 0 ack 40 ------- 0 1.0 4.0 9 24
- 3.377493 1 0 ack 40 ------- 0 1.0 4.0 9 24
r 3.386387 2 0 tcp 1040 ------- 0 4.0 1.0 10 17
+ 3.386387 0 1 tcp 1040 ------- 0 4.0 1.0 10 17
- 3.386387 0 1 tcp 1040 ------- 0 4.0 1.0 10 17
r 3.3876 1 0 ack 40 ------- 0 1.0 4.0 9 24
+ 3.3876 0 2 ack 40 ------- 0 1.0 4.0 9 24
- 3.3876 0 2 ack 40 ------- 0 1.0 4.0 9 24
r 3.39916 0 1 tcp 1040 ------- 0 4.0 1.0 10 17
+ 3.39916 1 0 ack 40 ------- 0 1.0 4.0 10 25
- 3.39916 1 0 ack 40 ------- 0 1.0 4.0 10 25
r 3.408053 2 0 tcp 1040 ------- 0 4.0 1.0 11 18
+ 3.408053 0 1 tcp 1040 ------- 0 4.0 1.0 11 18
- 3.408053 0 1 tcp 1040 ------- 0 4.0 1.0 11 18
r 3.409267 1 0 ack 40 ------- 0 1.0 4.0 10 25
+ 3.409267 0 2 ack 40 ------- 0 1.0 4.0 10 25
- 3.409267 0 2 ack 40 ------- 0 1.0 4.0 10 25
r 3.420827 0 1 tcp 1040 ------- 0 4.0 1.0 11 18
+ 3.420827 1 0 ack 40 ------- 0 1.0 4.0 11 26
- 3.420827 1 0 ack 40 ------- 0 1.0 4.0 11 26
r 3.42972 2 0 tcp 1040 ------- 0 4.0 1.0 12 19
+ 3.42972 0 1 tcp 1040 ------- 0 4.0 1.0 12 19
- 3.42972 0 1 tcp 1040 ------- 0 4.0 1.0 12 19
r 3.430933 1 0 ack 40 ------- 0 1.0 4.0 11 26
+ 3.430933 0 2 ack 40 ------- 0 1.0 4.0 11 26
- 3.430933 0 2 ack 40 ------- 0 1.0 4.0 11 26
r 3.442493 0 1 tcp 1040 ------- 0 4.0 1.0 12 19
+ 3.442493 1 0 ack 40 ------- 0 1.0 4.0 12 27
- 3.442493 1 0 ack 40 ------- 0 1.0 4.0 12 27
r 3.451387 2 0 tcp 1040 ------- 0 4.0 1.0 13 20
+ 3.451387 0 1 tcp 1040 ------- 0 4.0 1.0 13 20
- 3.451387 0 1 tcp 1040 ------- 0 4.0 1.0 13 20
r 3.4526 1 0 ack 40 ------- 0 1.0 4.0 12 27
+ 3.4526 0 2 ack 40 ------- 0 1.0 4.0 12 27
- 3.4526 0 2 ack 40 ------- 0 1.0 4.0 12 27
r 3.46416 0 1 tcp 1040 ------- 0 4.0 1.0 13 20
+ 3.46416 1 0 ack 40 ------- 0 1.0 4.0 13 28
- 3.46416 1 0 ack 40 ------- 0 1.0 4.0 13 28
r 3.473053 2 0 tcp 1040 ------- 0 4.0 1.0 14 21
+ 3.473053 0 1 tcp 1040 ------- 0 4.0 1.0 14 21
- 3.473053 0 1 tcp 1040 ------- 0 4.0 1.0 14 21
r 3.474267 1 0 ack 40 ------- 0 1.0 4.0 13 28
+ 3.474267 0 2 ack 40 ------- 0 1.0 4.0 13 28
- 3.474267 0 2 ack 40 ------- 0 1.0 4.0 13 28
r 3.485827 0 1 tcp 1040 ------- 0 4.0 1.0 14 21
+ 3.485827 1 0 ack 40 ------- 0 1.0 4.0 14 29
- 3.485827 1 0 ack 40 ------- 0 1.0 4.0 14 29
r 3.4951 0 2 ack 40 ------- 0 1.0 4.0 7 22
+ 3.4951 2 3 ack 40 ------- 0 1.0 4.0 7 22
- 3.4951 2 3 ack 40 ------- 0 1.0 4.0 7 22
r 3.495933 1 0 ack 40 ------- 0 1.0 4.0 14 29
+ 3.495933 0 2 ack 40 ------- 0 1.0 4.0 14 29
- 3.495933 0 2 ack 40 ------- 0 1.0 4.0 14 29
r 3.516767 0 2 ack 40 ------- 0 1.0 4.0 8 23
+ 3.516767 2 3 ack 40 ------- 0 1.0 4.0 8 23
- 3.516767 2 3 ack 40 ------- 0 1.0 4.0 8 23
r 3.538433 0 2 ack 40 ------- 0 1.0 4.0 9 24
+ 3.538433 2 3 ack 40 ------- 0 1.0 4.0 9 24
- 3.538433 2 3 ack 40 ------- 0 1.0 4.0 9 24
r 3.5601 0 2 ack 40 ------- 0 1.0 4.0 10 25
+ 3.5601 2 3 ack 40 ------- 0 1.0 4.0 10 25
- 3.5601 2 3 ack 40 ------- 0 1.0 4.0 10 25
r 3.581767 0 2 ack 40 ------- 0 1.0 4.0 11 26
+ 3.581767 2 3 ack 40 ------- 0 1.0 4.0 11 26
- 3.581767 2 3 ack 40 ------- 0 1.0 4.0 11 26
r 3.603433 0 2 ack 40 ------- 0 1.0 4.0 12 27
+ 3.603433 2 3 ack 40 ------- 0 1.0 4.0 12 27
- 3.603433 2 3 ack 40 ------- 0 1.0 4.0 12 27
r 3.6251 0 2 ack 40 ------- 0 1.0 4.0 13 28
+ 3.6251 2 3 ack 40 ------- 0 1.0 4.0 13 28
- 3.6251 2 3 ack 40 ------- 0 1.0 4.0 13 28
r 3.645933 2 3 ack 40 ------- 0 1.0 4.0 7 22
+ 3.645933 3 4 ack 40 ------- 0 1.0 4.0 7 22
- 3.645933 3 4 ack 40 ------- 0 1.0 4.0 7 22
r 3.646767 0 2 ack 40 ------- 0 1.0 4.0 14 29
+ 3.646767 2 3 ack 40 ------- 0 1.0 4.0 14 29
- 3.646767 2 3 ack 40 ------- 0 1.0 4.0 14 29
r 3.6676 2 3 ack 40 ------- 0 1.0 4.0 8 23
+ 3.6676 3 4 ack 40 ------- 0 1.0 4.0 8 23
- 3.6676 3 4 ack 40 ------- 0 1.0 4.0 8 23
r 3.67604 3 4 ack 40 ------- 0 1.0 4.0 7 22
+ 3.67604 4 3 tcp 1040 ------- 0 4.0 1.0 15 30
- 3.67604 4 3 tcp 1040 ------- 0 4.0 1.0 15 30
+ 3.67604 4 3 tcp 1040 ------- 0 4.0 1.0 16 31
- 3.678813 4 3 tcp 1040 ------- 0 4.0 1.0 16 31
r 3.689267 2 3 ack 40 ------- 0 1.0 4.0 9 24
+ 3.689267 3 4 ack 40 ------- 0 1.0 4.0 9 24
- 3.689267 3 4 ack 40 ------- 0 1.0 4.0 9 24
r 3.697707 3 4 ack 40 ------- 0 1.0 4.0 8 23
+ 3.697707 4 3 tcp 1040 ------- 0 4.0 1.0 17 32
- 3.697707 4 3 tcp 1040 ------- 0 4.0 1.0 17 32
+ 3.697707 4 3 tcp 1040 ------- 0 4.0 1.0 18 33
- 3.70048 4 3 tcp 1040 ------- 0 4.0 1.0 18 33
r 3.708813 4 3 tcp 1040 ------- 0 4.0 1.0 15 30
+ 3.708813 3 2 tcp 1040 ------- 0 4.0 1.0 15 30
- 3.708813 3 2 tcp 1040 ------- 0 4.0 1.0 15 30
r 3.710933 2 3 ack 40 ------- 0 1.0 4.0 10 25
+ 3.710933 3 4 ack 40 ------- 0 1.0 4.0 10 25
- 3.710933 3 4 ack 40 ------- 0 1.0 4.0 10 25
r 3.711587 4 3 tcp 1040 ------- 0 4.0 1.0 16 31
+ 3.711587 3 2 tcp 1040 ------- 0 4.0 1.0 16 31
r 3.719373 3 4 ack 40 ------- 0 1.0 4.0 9 24
+ 3.719373 4 3 tcp 1040 ------- 0 4.0 1.0 19 34
- 3.719373 4 3 tcp 1040 ------- 0 4.0 1.0 19 34
+ 3.719373 4 3 tcp 1040 ------- 0 4.0 1.0 20 35
- 3.722147 4 3 tcp 1040 ------- 0 4.0 1.0 20 35
r 3.73048 4 3 tcp 1040 ------- 0 4.0 1.0 17 32
+ 3.73048 3 2 tcp 1040 ------- 0 4.0 1.0 17 32
- 3.73048 3 2 tcp 1040 ------- 0 4.0 1.0 16 31
r 3.7326 2 3 ack 40 ------- 0 1.0 4.0 11 26
+ 3.7326 3 4 ack 40 ------- 0 1.0 4.0 11 26
- 3.7326 3 4 ack 40 ------- 0 1.0 4.0 11 26
r 3.733253 4 3 tcp 1040 ------- 0 4.0 1.0 18 33
+ 3.733253 3 2 tcp 1040 ------- 0 4.0 1.0 18 33
r 3.74104 3 4 ack 40 ------- 0 1.0 4.0 10 25
+ 3.74104 4 3 tcp 1040 ------- 0 4.0 1.0 21 36
- 3.74104 4 3 tcp 1040 ------- 0 4.0 1.0 21 36
+ 3.74104 4 3 tcp 1040 ------- 0 4.0 1.0 22 37
- 3.743813 4 3 tcp 1040 ------- 0 4.0 1.0 22 37
r 3.752147 4 3 tcp 1040 ------- 0 4.0 1.0 19 34
+ 3.752147 3 2 tcp 1040 ------- 0 4.0 1.0 19 34
- 3.752147 3 2 tcp 1040 ------- 0 4.0 1.0 17 32
r 3.754267 2 3 ack 40 ------- 0 1.0 4.0 12 27
+ 3.754267 3 4 ack 40 ------- 0 1.0 4.0 12 27
- 3.754267 3 4 ack 40 ------- 0 1.0 4.0 12 27
r 3.75492 4 3 tcp 1040 ------- 0 4.0 1.0 20 35
+ 3.75492 3 2 tcp 1040 ------- 0 4.0 1.0 20 35
r 3.762707 3 4 ack 40 ------- 0 1.0 4.0 11 26
+ 3.762707 4 3 tcp 1040 ------- 0 4.0 1.0 23 38
- 3.762707 4 3 tcp 1040 ------- 0 4.0 1.0 23 38
+ 3.762707 4 3 tcp 1040 ------- 0 4.0 1.0 24 39
- 3.76548 4 3 tcp 1040 ------- 0 4.0 1.0 24 39
r 3.773813 4 3 tcp 1040 ------- 0 4.0 1.0 21 36
+ 3.773813 3 2 tcp 1040 ------- 0 4.0 1.0 21 36
- 3.773813 3 2 tcp 1040 ------- 0 4.0 1.0 18 33
r 3.775933 2 3 ack 40 ------- 0 1.0 4.0 13 28
+ 3.775933 3 4 ack 40 ------- 0 1.0 4.0 13 28
- 3.775933 3 4 ack 40 ------- 0 1.0 4.0 13 28
r 3.776587 4 3 tcp 1040 ------- 0 4.0 1.0 22 37
+ 3.776587 3 2 tcp 1040 ------- 0 4.0 1.0 22 37
r 3.784373 3 4 ack 40 ------- 0 1.0 4.0 12 27
+ 3.784373 4 3 tcp 1040 ------- 0 4.0 1.0 25 40
- 3.784373 4 3 tcp 1040 ------- 0 4.0 1.0 25 40
+ 3.784373 4 3 tcp 1040 ------- 0 4.0 1.0 26 41
- 3.787147 4 3 tcp 1040 ------- 0 4.0 1.0 26 41
r 3.79548 4 3 tcp 1040 ------- 0 4.0 1.0 23 38
+ 3.79548 3 2 tcp 1040 ------- 0 4.0 1.0 23 38
- 3.79548 3 2 tcp 1040 ------- 0 4.0 1.0 19 34
r 3.7976 2 3 ack 40 ------- 0 1.0 4.0 14 29
+ 3.7976 3 4 ack 40 ------- 0 1.0 4.0 14 29
- 3.7976 3 4 ack 40 ------- 0 1.0 4.0 14 29
r 3.798253 4 3 tcp 1040 ------- 0 4.0 1.0 24 39
+ 3.798253 3 2 tcp 1040 ------- 0 4.0 1.0 24 39
r 3.80604 3 4 ack 40 ------- 0 1.0 4.0 13 28
+ 3.80604 4 3 tcp 1040 ------- 0 4.0 1.0 27 42
- 3.80604 4 3 tcp 1040 ------- 0 4.0 1.0 27 42
+ 3.80604 4 3 tcp 1040 ------- 0 4.0 1.0 28 43
- 3.808813 4 3 tcp 1040 ------- 0 4.0 1.0 28 43
r 3.817147 4 3 tcp 1040 ------- 0 4.0 1.0 25 40
+ 3.817147 3 2 tcp 1040 ------- 0 4.0 1.0 25 40
- 3.817147 3 2 tcp 1040 ------- 0 4.0 1.0 20 35
r 3.81992 4 3 tcp 1040 ------- 0 4.0 1.0 26 41
+ 3.81992 3 2 tcp 1040 ------- 0 4.0 1.0 26 41
r 3.827707 3 4 ack 40 ------- 0 1.0 4.0 14 29
+ 3.827707 4 3 tcp 1040 ------- 0 4.0 1.0 29 44
- 3.827707 4 3 tcp 1040 ------- 0 4.0 1.0 29 44
+ 3.827707 4 3 tcp 1040 ------- 0 4.0 1.0 30 45
- 3.83048 4 3 tcp 1040 ------- 0 4.0 1.0 30 45
r 3.838813 4 3 tcp 1040 ------- 0 4.0 1.0 27 42
+ 3.838813 3 2 tcp 1040 ------- 0 4.0 1.0 27 42
- 3.838813 3 2 tcp 1040 ------- 0 4.0 1.0 21 36
r 3.841587 4 3 tcp 1040 ------- 0 4.0 1.0 28 43
+ 3.841587 3 2 tcp 1040 ------- 0 4.0 1.0 28 43
r 3.86048 4 3 tcp 1040 ------- 0 4.0 1.0 29 44
+ 3.86048 3 2 tcp 1040 ------- 0 4.0 1.0 29 44
- 3.86048 3 2 tcp 1040 ------- 0 4.0 1.0 22 37
r 3.863253 4 3 tcp 1040 ------- 0 4.0 1.0 30 45
+ 3.863253 3 2 tcp 1040 ------- 0 4.0 1.0 30 45
r 3.88048 3 2 tcp 1040 ------- 0 4.0 1.0 15 30
+ 3.88048 2 0 tcp 1040 ------- 0 4.0 1.0 15 30
- 3.88048 2 0 tcp 1040 ------- 0 4.0 1.0 15 30
- 3.882147 3 2 tcp 1040 ------- 0 4.0 1.0 23 38
r 3.902147 3 2 tcp 1040 ------- 0 4.0 1.0 16 31
+ 3.902147 2 0 tcp 1040 ------- 0 4.0 1.0 16 31
- 3.902147 2 0 tcp 1040 ------- 0 4.0 1.0 16 31
- 3.903813 3 2 tcp 1040 ------- 0 4.0 1.0 24 39
r 3.923813 3 2 tcp 1040 ------- 0 4.0 1.0 17 32
+ 3.923813 2 0 tcp 1040 ------- 0 4.0 1.0 17 32
- 3.923813 2 0 tcp 1040 ------- 0 4.0 1.0 17 32
- 3.92548 3 2 tcp 1040 ------- 0 4.0 1.0 25 40
r 3.94548 3 2 tcp 1040 ------- 0 4.0 1.0 18 33
+ 3.94548 2 0 tcp 1040 ------- 0 4.0 1.0 18 33
- 3.94548 2 0 tcp 1040 ------- 0 4.0 1.0 18 33
- 3.947147 3 2 tcp 1040 ------- 0 4.0 1.0 26 41
r 3.967147 3 2 tcp 1040 ------- 0 4.0 1.0 19 34
+ 3.967147 2 0 tcp 1040 ------- 0 4.0 1.0 19 34
- 3.967147 2 0 tcp 1040 ------- 0 4.0 1.0 19 34
- 3.968813 3 2 tcp 1040 ------- 0 4.0 1.0 27 42
r 3.988813 3 2 tcp 1040 ------- 0 4.0 1.0 20 35
+ 3.988813 2 0 tcp 1040 ------- 0 4.0 1.0 20 35
- 3.988813 2 0 tcp 1040 ------- 0 4.0 1.0 20 35
- 3.99048 3 2 tcp 1040 ------- 0 4.0 1.0 28 43
r 4.01048 3 2 tcp 1040 ------- 0 4.0 1.0 21 36
+ 4.01048 2 0 tcp 1040 ------- 0 4.0 1.0 21 36
- 4.01048 2 0 tcp 1040 ------- 0 4.0 1.0 21 36
- 4.012147 3 2 tcp 1040 ------- 0 4.0 1.0 29 44
r 4.032147 3 2 tcp 1040 ------- 0 4.0 1.0 22 37
+ 4.032147 2 0 tcp 1040 ------- 0 4.0 1.0 22 37
- 4.032147 2 0 tcp 1040 ------- 0 4.0 1.0 22 37
- 4.033813 3 2 tcp 1040 ------- 0 4.0 1.0 30 45
r 4.052147 2 0 tcp 1040 ------- 0 4.0 1.0 15 30
+ 4.052147 0 1 tcp 1040 ------- 0 4.0 1.0 15 30
- 4.052147 0 1 tcp 1040 ------- 0 4.0 1.0 15 30
r 4.053813 3 2 tcp 1040 ------- 0 4.0 1.0 23 38
+ 4.053813 2 0 tcp 1040 ------- 0 4.0 1.0 23 38
- 4.053813 2 0 tcp 1040 ------- 0 4.0 1.0 23 38
r 4.06492 0 1 tcp 1040 ------- 0 4.0 1.0 15 30
+ 4.06492 1 0 ack 40 ------- 0 1.0 4.0 15 46
- 4.06492 1 0 ack 40 ------- 0 1.0 4.0 15 46
r 4.073813 2 0 tcp 1040 ------- 0 4.0 1.0 16 31
+ 4.073813 0 1 tcp 1040 ------- 0 4.0 1.0 16 31
- 4.073813 0 1 tcp 1040 ------- 0 4.0 1.0 16 31
r 4.075027 1 0 ack 40 ------- 0 1.0 4.0 15 46
+ 4.075027 0 2 ack 40 ------- 0 1.0 4.0 15 46
- 4.075027 0 2 ack 40 ------- 0 1.0 4.0 15 46
r 4.07548 3 2 tcp 1040 ------- 0 4.0 1.0 24 39
+ 4.07548 2 0 tcp 1040 ------- 0 4.0 1.0 24 39
- 4.07548 2 0 tcp 1040 ------- 0 4.0 1.0 24 39
r 4.086587 0 1 tcp 1040 ------- 0 4.0 1.0 16 31
+ 4.086587 1 0 ack 40 ------- 0 1.0 4.0 16 47
- 4.086587 1 0 ack 40 ------- 0 1.0 4.0 16 47
r 4.09548 2 0 tcp 1040 ------- 0 4.0 1.0 17 32
+ 4.09548 0 1 tcp 1040 ------- 0 4.0 1.0 17 32
- 4.09548 0 1 tcp 1040 ------- 0 4.0 1.0 17 32
r 4.096693 1 0 ack 40 ------- 0 1.0 4.0 16 47
+ 4.096693 0 2 ack 40 ------- 0 1.0 4.0 16 47
- 4.096693 0 2 ack 40 ------- 0 1.0 4.0 16 47
r 4.097147 3 2 tcp 1040 ------- 0 4.0 1.0 25 40
+ 4.097147 2 0 tcp 1040 ------- 0 4.0 1.0 25 40
- 4.097147 2 0 tcp 1040 ------- 0 4.0 1.0 25 40
r 4.108253 0 1 tcp 1040 ------- 0 4.0 1.0 17 32
+ 4.108253 1 0 ack 40 ------- 0 1.0 4.0 17 48
- 4.108253 1 0 ack 40 ------- 0 1.0 4.0 17 48
r 4.117147 2 0 tcp 1040 ------- 0 4.0 1.0 18 33
+ 4.117147 0 1 tcp 1040 ------- 0 4.0 1.0 18 33
- 4.117147 0 1 tcp 1040 ------- 0 4.0 1.0 18 33
r 4.11836 1 0 ack 40 ------- 0 1.0 4.0 17 48
+ 4.11836 0 2 ack 40 ------- 0 1.0 4.0 17 48
- 4.11836 0 2 ack 40 ------- 0 1.0 4.0 17 48
r 4.118813 3 2 tcp 1040 ------- 0 4.0 1.0 26 41
+ 4.118813 2 0 tcp 1040 ------- 0 4.0 1.0 26 41
- 4.118813 2 0 tcp 1040 ------- 0 4.0 1.0 26 41
r 4.12992 0 1 tcp 1040 ------- 0 4.0 1.0 18 33
+ 4.12992 1 0 ack 40 ------- 0 1.0 4.0 18 49
- 4.12992 1 0 ack 40 ------- 0 1.0 4.0 18 49
r 4.138813 2 0 tcp 1040 ------- 0 4.0 1.0 19 34
+ 4.138813 0 1 tcp 1040 ------- 0 4.0 1.0 19 34
- 4.138813 0 1 tcp 1040 ------- 0 4.0 1.0 19 34
r 4.140027 1 0 ack 40 ------- 0 1.0 4.0 18 49
+ 4.140027 0 2 ack 40 ------- 0 1.0 4.0 18 49
- 4.140027 0 2 ack 40 ------- 0 1.0 4.0 18 49
r 4.14048 3 2 tcp 1040 ------- 0 4.0 1.0 27 42
+ 4.14048 2 0 tcp 1040 ------- 0 4.0 1.0 27 42
- 4.14048 2 0 tcp 1040 ------- 0 4.0 1.0 27 42
r 4.151587 0 1 tcp 1040 ------- 0 4.0 1.0 19 34
+ 4.151587 1 0 ack 40 ------- 0 1.0 4.0 19 50
- 4.151587 1 0 ack 40 ------- 0 1.0 4.0 19 50
r 4.16048 2 0 tcp 1040 ------- 0 4.0 1.0 20 35
+ 4.16048 0 1 tcp 1040 ------- 0 4.0 1.0 20 35
- 4.16048 0 1 tcp 1040 ------- 0 4.0 1.0 20 35
r 4.161693 1 0 ack 40 ------- 0 1.0 4.0 19 50
+ 4.161693 0 2 ack 40 ------- 0 1.0 4.0 19 50
- 4.161693 0 2 ack 40 ------- 0 1.0 4.0 19 50
r 4.162147 3 2 tcp 1040 ------- 0 4.0 1.0 28 43
+ 4.162147 2 0 tcp 1040 ------- 0 4.0 1.0 28 43
- 4.162147 2 0 tcp 1040 ------- 0 4.0 1.0 28 43
r 4.173253 0 1 tcp 1040 ------- 0 4.0 1.0 20 35
+ 4.173253 1 0 ack 40 ------- 0 1.0 4.0 20 51
- 4.173253 1 0 ack 40 ------- 0 1.0 4.0 20 51
r 4.182147 2 0 tcp 1040 ------- 0 4.0 1.0 21 36
+ 4.182147 0 1 tcp 1040 ------- 0 4.0 1.0 21 36
- 4.182147 0 1 tcp 1040 ------- 0 4.0 1.0 21 36
r 4.18336 1 0 ack 40 ------- 0 1.0 4.0 20 51
+ 4.18336 0 2 ack 40 ------- 0 1.0 4.0 20 51
- 4.18336 0 2 ack 40 ------- 0 1.0 4.0 20 51
r 4.183813 3 2 tcp 1040 ------- 0 4.0 1.0 29 44
+ 4.183813 2 0 tcp 1040 ------- 0 4.0 1.0 29 44
- 4.183813 2 0 tcp 1040 ------- 0 4.0 1.0 29 44
r 4.19492 0 1 tcp 1040 ------- 0 4.0 1.0 21 36
+ 4.19492 1 0 ack 40 ------- 0 1.0 4.0 21 52
- 4.19492 1 0 ack 40 ------- 0 1.0 4.0 21 52
r 4.203813 2 0 tcp 1040 ------- 0 4.0 1.0 22 37
+ 4.203813 0 1 tcp 1040 ------- 0 4.0 1.0 22 37
- 4.203813 0 1 tcp 1040 ------- 0 4.0 1.0 22 37
r 4.205027 1 0 ack 40 ------- 0 1.0 4.0 21 52
+ 4.205027 0 2 ack 40 ------- 0 1.0 4.0 21 52
- 4.205027 0 2 ack 40 ------- 0 1.0 4.0 21 52
r 4.20548 3 2 tcp 1040 ------- 0 4.0 1.0 30 45
+ 4.20548 2 0 tcp 1040 ------- 0 4.0 1.0 30 45
- 4.20548 2 0 tcp 1040 ------- 0 4.0 1.0 30 45
r 4.216587 0 1 tcp 1040 ------- 0 4.0 1.0 22 37
+ 4.216587 1 0 ack 40 ------- 0 1.0 4.0 22 53
- 4.216587 1 0 ack 40 ------- 0 1.0 4.0 22 53
r 4.22548 2 0 tcp 1040 ------- 0 4.0 1.0 23 38
+ 4.22548 0 1 tcp 1040 ------- 0 4.0 1.0 23 38
- 4.22548 0 1 tcp 1040 ------- 0 4.0 1.0 23 38
r 4.22586 0 2 ack 40 ------- 0 1.0 4.0 15 46
+ 4.22586 2 3 ack 40 ------- 0 1.0 4.0 15 46
- 4.22586 2 3 ack 40 ------- 0 1.0 4.0 15 46
r 4.226693 1 0 ack 40 ------- 0 1.0 4.0 22 53
+ 4.226693 0 2 ack 40 ------- 0 1.0 4.0 22 53
- 4.226693 0 2 ack 40 ------- 0 1.0 4.0 22 53
r 4.238253 0 1 tcp 1040 ------- 0 4.0 1.0 23 38
+ 4.238253 1 0 ack 40 ------- 0 1.0 4.0 23 54
- 4.238253 1 0 ack 40 ------- 0 1.0 4.0 23 54
r 4.247147 2 0 tcp 1040 ------- 0 4.0 1.0 24 39
+ 4.247147 0 1 tcp 1040 ------- 0 4.0 1.0 24 39
- 4.247147 0 1 tcp 1040 ------- 0 4.0 1.0 24 39
r 4.247527 0 2 ack 40 ------- 0 1.0 4.0 16 47
+ 4.247527 2 3 ack 40 ------- 0 1.0 4.0 16 47
- 4.247527 2 3 ack 40 ------- 0 1.0 4.0 16 47
r 4.24836 1 0 ack 40 ------- 0 1.0 4.0 23 54
+ 4.24836 0 2 ack 40 ------- 0 1.0 4.0 23 54
- 4.24836 0 2 ack 40 ------- 0 1.0 4.0 23 54
r 4.25992 0 1 tcp 1040 ------- 0 4.0 1.0 24 39
+ 4.25992 1 0 ack 40 ------- 0 1.0 4.0 24 55
- 4.25992 1 0 ack 40 ------- 0 1.0 4.0 24 55
r 4.268813 2 0 tcp 1040 ------- 0 4.0 1.0 25 40
+ 4.268813 0 1 tcp 1040 ------- 0 4.0 1.0 25 40
- 4.268813 0 1 tcp 1040 ------- 0 4.0 1.0 25 40
r 4.269193 0 2 ack 40 ------- 0 1.0 4.0 17 48
+ 4.269193 2 3 ack 40 ------- 0 1.0 4.0 17 48
- 4.269193 2 3 ack 40 ------- 0 1.0 4.0 17 48
r 4.270027 1 0 ack 40 ------- 0 1.0 4.0 24 55
+ 4.270027 0 2 ack 40 ------- 0 1.0 4.0 24 55
- 4.270027 0 2 ack 40 ------- 0 1.0 4.0 24 55
r 4.281587 0 1 tcp 1040 ------- 0 4.0 1.0 25 40
+ 4.281587 1 0 ack 40 ------- 0 1.0 4.0 25 56
- 4.281587 1 0 ack 40 ------- 0 1.0 4.0 25 56
r 4.29048 2 0 tcp 1040 ------- 0 4.0 1.0 26 41
+ 4.29048 0 1 tcp 1040 ------- 0 4.0 1.0 26 41
- 4.29048 0 1 tcp 1040 ------- 0 4.0 1.0 26 41
r 4.29086 0 2 ack 40 ------- 0 1.0 4.0 18 49
+ 4.29086 2 3 ack 40 ------- 0 1.0 4.0 18 49
- 4.29086 2 3 ack 40 ------- 0 1.0 4.0 18 49
r 4.291693 1 0 ack 40 ------- 0 1.0 4.0 25 56
+ 4.291693 0 2 ack 40 ------- 0 1.0 4.0 25 56
- 4.291693 0 2 ack 40 ------- 0 1.0 4.0 25 56
r 4.303253 0 1 tcp 1040 ------- 0 4.0 1.0 26 41
+ 4.303253 1 0 ack 40 ------- 0 1.0 4.0 26 57
- 4.303253 1 0 ack 40 ------- 0 1.0 4.0 26 57
r 4.312147 2 0 tcp 1040 ------- 0 4.0 1.0 27 42
+ 4.312147 0 1 tcp 1040 ------- 0 4.0 1.0 27 42
- 4.312147 0 1 tcp 1040 ------- 0 4.0 1.0 27 42
r 4.312527 0 2 ack 40 ------- 0 1.0 4.0 19 50
+ 4.312527 2 3 ack 40 ------- 0 1.0 4.0 19 50
- 4.312527 2 3 ack 40 ------- 0 1.0 4.0 19 50
r 4.31336 1 0 ack 40 ------- 0 1.0 4.0 26 57
+ 4.31336 0 2 ack 40 ------- 0 1.0 4.0 26 57
- 4.31336 0 2 ack 40 ------- 0 1.0 4.0 26 57
r 4.32492 0 1 tcp 1040 ------- 0 4.0 1.0 27 42
+ 4.32492 1 0 ack 40 ------- 0 1.0 4.0 27 58
- 4.32492 1 0 ack 40 ------- 0 1.0 4.0 27 58
r 4.333813 2 0 tcp 1040 ------- 0 4.0 1.0 28 43
+ 4.333813 0 1 tcp 1040 ------- 0 4.0 1.0 28 43
- 4.333813 0 1 tcp 1040 ------- 0 4.0 1.0 28 43
r 4.334193 0 2 ack 40 ------- 0 1.0 4.0 20 51
+ 4.334193 2 3 ack 40 ------- 0 1.0 4.0 20 51
- 4.334193 2 3 ack 40 ------- 0 1.0 4.0 20 51
r 4.335027 1 0 ack 40 ------- 0 1.0 4.0 27 58
+ 4.335027 0 2 ack 40 ------- 0 1.0 4.0 27 58
- 4.335027 0 2 ack 40 ------- 0 1.0 4.0 27 58
r 4.346587 0 1 tcp 1040 ------- 0 4.0 1.0 28 43
+ 4.346587 1 0 ack 40 ------- 0 1.0 4.0 28 59
- 4.346587 1 0 ack 40 ------- 0 1.0 4.0 28 59
r 4.35548 2 0 tcp 1040 ------- 0 4.0 1.0 29 44
+ 4.35548 0 1 tcp 1040 ------- 0 4.0 1.0 29 44
- 4.35548 0 1 tcp 1040 ------- 0 4.0 1.0 29 44
r 4.35586 0 2 ack 40 ------- 0 1.0 4.0 21 52
+ 4.35586 2 3 ack 40 ------- 0 1.0 4.0 21 52
- 4.35586 2 3 ack 40 ------- 0 1.0 4.0 21 52
r 4.356693 1 0 ack 40 ------- 0 1.0 4.0 28 59
+ 4.356693 0 2 ack 40 ------- 0 1.0 4.0 28 59
- 4.356693 0 2 ack 40 ------- 0 1.0 4.0 28 59
r 4.368253 0 1 tcp 1040 ------- 0 4.0 1.0 29 44
+ 4.368253 1 0 ack 40 ------- 0 1.0 4.0 29 60
- 4.368253 1 0 ack 40 ------- 0 1.0 4.0 29 60
r 4.376693 2 3 ack 40 ------- 0 1.0 4.0 15 46
+ 4.376693 3 4 ack 40 ------- 0 1.0 4.0 15 46
- 4.376693 3 4 ack 40 ------- 0 1.0 4.0 15 46
r 4.377147 2 0 tcp 1040 ------- 0 4.0 1.0 30 45
+ 4.377147 0 1 tcp 1040 ------- 0 4.0 1.0 30 45
- 4.377147 0 1 tcp 1040 ------- 0 4.0 1.0 30 45
r 4.377527 0 2 ack 40 ------- 0 1.0 4.0 22 53
+ 4.377527 2 3 ack 40 ------- 0 1.0 4.0 22 53
- 4.377527 2 3 ack 40 ------- 0 1.0 4.0 22 53