+ 0 0 4 ping 500000 ------- 0 0.0 5.0 -1 0
- 0 0 4 ping 500000 ------- 0 0.0 5.0 -1 0
+ 0 2 4 ping 300000 ------- 0 2.0 3.0 -1 1
- 0 2 4 ping 300000 ------- 0 2.0 3.0 -1 1
+ 0.1 0 4 ping 500000 ------- 0 0.0 5.0 -1 2
+ 0.1 2 4 ping 300000 ------- 0 2.0 3.0 -1 3
+ 0.2 0 4 ping 500000 ------- 0 0.0 5.0 -1 4
+ 0.2 2 4 ping 300000 ------- 0 2.0 3.0 -1 5
- 0.24 2 4 ping 300000 ------- 0 2.0 3.0 -1 3
r 0.25 2 4 ping 300000 ------- 0 2.0 3.0 -1 1
+ 0.25 4 3 ping 300000 ------- 0 2.0 3.0 -1 1
- 0.25 4 3 ping 300000 ------- 0 2.0 3.0 -1 1
+ 0.3 0 4 ping 500000 ------- 0 0.0 5.0 -1 6
+ 0.3 2 4 ping 300000 ------- 0 2.0 3.0 -1 7
+ 0.4 0 4 ping 500000 ------- 0 0.0 5.0 -1 8
+ 0.4 2 4 ping 300000 ------- 0 2.0 3.0 -1 9
d 0.4 2 4 ping 300000 ------- 0 2.0 3.0 -1 9
- 0.4 0 4 ping 500000 ------- 0 0.0 5.0 -1 2
r 0.41 0 4 ping 500000 ------- 0 0.0 5.0 -1 0
+ 0.41 4 5 ping 500000 ------- 0 0.0 5.0 -1 0
- 0.41 4 5 ping 500000 ------- 0 0.0 5.0 -1 0
- 0.48 2 4 ping 300000 ------- 0 2.0 3.0 -1 5
r 0.49 2 4 ping 300000 ------- 0 2.0 3.0 -1 3
+ 0.49 4 3 ping 300000 ------- 0 2.0 3.0 -1 3
- 0.49 4 3 ping 300000 ------- 0 2.0 3.0 -1 3
+ 0.5 0 4 ping 500000 ------- 0 0.0 5.0 -1 10
+ 0.5 2 4 ping 300000 ------- 0 2.0 3.0 -1 11
r 0.5 4 3 ping 300000 ------- 0 2.0 3.0 -1 1
+ 0.5 3 4 ping 64 ------- 0 3.0 2.0 -1 12
- 0.5 3 4 ping 64 ------- 0 3.0 2.0 -1 12
r 0.510051 3 4 ping 64 ------- 0 3.0 2.0 -1 12
+ 0.510051 4 2 ping 64 ------- 0 3.0 2.0 -1 12
- 0.510051 4 2 ping 64 ------- 0 3.0 2.0 -1 12
r 0.520102 4 2 ping 64 ------- 0 3.0 2.0 -1 12
+ 0.6 0 4 ping 500000 ------- 0 0.0 5.0 -1 13
d 0.6 0 4 ping 500000 ------- 0 0.0 5.0 -1 13
+ 0.6 2 4 ping 300000 ------- 0 2.0 3.0 -1 14
d 0.6 2 4 ping 300000 ------- 0 2.0 3.0 -1 14
+ 0.7 0 4 ping 500000 ------- 0 0.0 5.0 -1 15
d 0.7 0 4 ping 500000 ------- 0 0.0 5.0 -1 15
+ 0.7 2 4 ping 300000 ------- 0 2.0 3.0 -1 16
d 0.7 2 4 ping 300000 ------- 0 2.0 3.0 -1 16
- 0.72 2 4 ping 300000 ------- 0 2.0 3.0 -1 7
r 0.73 2 4 ping 300000 ------- 0 2.0 3.0 -1 5
+ 0.73 4 3 ping 300000 ------- 0 2.0 3.0 -1 5
- 0.73 4 3 ping 300000 ------- 0 2.0 3.0 -1 5
r 0.74 4 3 ping 300000 ------- 0 2.0 3.0 -1 3
+ 0.74 3 4 ping 64 ------- 0 3.0 2.0 -1 17
- 0.74 3 4 ping 64 ------- 0 3.0 2.0 -1 17
r 0.750051 3 4 ping 64 ------- 0 3.0 2.0 -1 17
+ 0.750051 4 2 ping 64 ------- 0 3.0 2.0 -1 17
- 0.750051 4 2 ping 64 ------- 0 3.0 2.0 -1 17
r 0.760102 4 2 ping 64 ------- 0 3.0 2.0 -1 17
+ 0.8 0 4 ping 500000 ------- 0 0.0 5.0 -1 18
d 0.8 0 4 ping 500000 ------- 0 0.0 5.0 -1 18
+ 0.8 2 4 ping 300000 ------- 0 2.0 3.0 -1 19
- 0.8 0 4 ping 500000 ------- 0 0.0 5.0 -1 4
r 0.81 0 4 ping 500000 ------- 0 0.0 5.0 -1 2
+ 0.81 4 5 ping 500000 ------- 0 0.0 5.0 -1 2
- 0.81 4 5 ping 500000 ------- 0 0.0 5.0 -1 2
r 0.82 4 5 ping 500000 ------- 0 0.0 5.0 -1 0
+ 0.82 5 4 ping 64 ------- 0 5.0 0.0 -1 20
- 0.82 5 4 ping 64 ------- 0 5.0 0.0 -1 20
r 0.830051 5 4 ping 64 ------- 0 5.0 0.0 -1 20
+ 0.830051 4 0 ping 64 ------- 0 5.0 0.0 -1 20
- 0.830051 4 0 ping 64 ------- 0 5.0 0.0 -1 20
r 0.840102 4 0 ping 64 ------- 0 5.0 0.0 -1 20
+ 0.9 0 4 ping 500000 ------- 0 0.0 5.0 -1 21
+ 0.9 2 4 ping 300000 ------- 0 2.0 3.0 -1 22
d 0.9 2 4 ping 300000 ------- 0 2.0 3.0 -1 22
- 0.96 2 4 ping 300000 ------- 0 2.0 3.0 -1 11
r 0.97 2 4 ping 300000 ------- 0 2.0 3.0 -1 7
+ 0.97 4 3 ping 300000 ------- 0 2.0 3.0 -1 7
- 0.97 4 3 ping 300000 ------- 0 2.0 3.0 -1 7
r 0.98 4 3 ping 300000 ------- 0 2.0 3.0 -1 5
+ 0.98 3 4 ping 64 ------- 0 3.0 2.0 -1 23
- 0.98 3 4 ping 64 ------- 0 3.0 2.0 -1 23
r 0.990051 3 4 ping 64 ------- 0 3.0 2.0 -1 23
+ 0.990051 4 2 ping 64 ------- 0 3.0 2.0 -1 23
- 0.990051 4 2 ping 64 ------- 0 3.0 2.0 -1 23
+ 1 0 4 ping 500000 ------- 0 0.0 5.0 -1 24
d 1 0 4 ping 500000 ------- 0 0.0 5.0 -1 24
+ 1 2 4 ping 300000 ------- 0 2.0 3.0 -1 25
r 1.000102 4 2 ping 64 ------- 0 3.0 2.0 -1 23
+ 1.1 0 4 ping 500000 ------- 0 0.0 5.0 -1 26
d 1.1 0 4 ping 500000 ------- 0 0.0 5.0 -1 26
+ 1.1 2 4 ping 300000 ------- 0 2.0 3.0 -1 27
d 1.1 2 4 ping 300000 ------- 0 2.0 3.0 -1 27
+ 1.2 0 4 ping 500000 ------- 0 0.0 5.0 -1 28
d 1.2 0 4 ping 500000 ------- 0 0.0 5.0 -1 28
+ 1.2 2 4 ping 300000 ------- 0 2.0 3.0 -1 29
d 1.2 2 4 ping 300000 ------- 0 2.0 3.0 -1 29
- 1.2 2 4 ping 300000 ------- 0 2.0 3.0 -1 19
- 1.2 0 4 ping 500000 ------- 0 0.0 5.0 -1 6
r 1.21 0 4 ping 500000 ------- 0 0.0 5.0 -1 4
+ 1.21 4 5 ping 500000 ------- 0 0.0 5.0 -1 4
- 1.21 4 5 ping 500000 ------- 0 0.0 5.0 -1 4
r 1.21 2 4 ping 300000 ------- 0 2.0 3.0 -1 11
+ 1.21 4 3 ping 300000 ------- 0 2.0 3.0 -1 11
- 1.21 4 3 ping 300000 ------- 0 2.0 3.0 -1 11
r 1.22 4 3 ping 300000 ------- 0 2.0 3.0 -1 7
+ 1.22 3 4 ping 64 ------- 0 3.0 2.0 -1 30
- 1.22 3 4 ping 64 ------- 0 3.0 2.0 -1 30
r 1.22 4 5 ping 500000 ------- 0 0.0 5.0 -1 2
+ 1.22 5 4 ping 64 ------- 0 5.0 0.0 -1 31
- 1.22 5 4 ping 64 ------- 0 5.0 0.0 -1 31
r 1.230051 3 4 ping 64 ------- 0 3.0 2.0 -1 30
+ 1.230051 4 2 ping 64 ------- 0 3.0 2.0 -1 30
- 1.230051 4 2 ping 64 ------- 0 3.0 2.0 -1 30
r 1.230051 5 4 ping 64 ------- 0 5.0 0.0 -1 31
+ 1.230051 4 0 ping 64 ------- 0 5.0 0.0 -1 31
- 1.230051 4 0 ping 64 ------- 0 5.0 0.0 -1 31
r 1.240102 4 2 ping 64 ------- 0 3.0 2.0 -1 30
r 1.240102 4 0 ping 64 ------- 0 5.0 0.0 -1 31
+ 1.3 0 4 ping 500000 ------- 0 0.0 5.0 -1 32
+ 1.3 2 4 ping 300000 ------- 0 2.0 3.0 -1 33
+ 1.4 0 4 ping 500000 ------- 0 0.0 5.0 -1 34
d 1.4 0 4 ping 500000 ------- 0 0.0 5.0 -1 34
+ 1.4 2 4 ping 300000 ------- 0 2.0 3.0 -1 35
d 1.4 2 4 ping 300000 ------- 0 2.0 3.0 -1 35
- 1.44 2 4 ping 300000 ------- 0 2.0 3.0 -1 25
r 1.45 2 4 ping 300000 ------- 0 2.0 3.0 -1 19
+ 1.45 4 3 ping 300000 ------- 0 2.0 3.0 -1 19
- 1.45 4 3 ping 300000 ------- 0 2.0 3.0 -1 19
r 1.46 4 3 ping 300000 ------- 0 2.0 3.0 -1 11
+ 1.46 3 4 ping 64 ------- 0 3.0 2.0 -1 36
- 1.46 3 4 ping 64 ------- 0 3.0 2.0 -1 36
r 1.470051 3 4 ping 64 ------- 0 3.0 2.0 -1 36
+ 1.470051 4 2 ping 64 ------- 0 3.0 2.0 -1 36
- 1.470051 4 2 ping 64 ------- 0 3.0 2.0 -1 36
r 1.480102 4 2 ping 64 ------- 0 3.0 2.0 -1 36
+ 1.5 0 4 ping 500000 ------- 0 0.0 5.0 -1 37
d 1.5 0 4 ping 500000 ------- 0 0.0 5.0 -1 37
+ 1.5 2 4 ping 300000 ------- 0 2.0 3.0 -1 38
+ 1.6 0 4 ping 500000 ------- 0 0.0 5.0 -1 39
d 1.6 0 4 ping 500000 ------- 0 0.0 5.0 -1 39
+ 1.6 2 4 ping 300000 ------- 0 2.0 3.0 -1 40
d 1.6 2 4 ping 300000 ------- 0 2.0 3.0 -1 40
- 1.6 0 4 ping 500000 ------- 0 0.0 5.0 -1 8
r 1.61 0 4 ping 500000 ------- 0 0.0 5.0 -1 6
+ 1.61 4 5 ping 500000 ------- 0 0.0 5.0 -1 6
- 1.61 4 5 ping 500000 ------- 0 0.0 5.0 -1 6
r 1.62 4 5 ping 500000 ------- 0 0.0 5.0 -1 4
+ 1.62 5 4 ping 64 ------- 0 5.0 0.0 -1 41
- 1.62 5 4 ping 64 ------- 0 5.0 0.0 -1 41
r 1.630051 5 4 ping 64 ------- 0 5.0 0.0 -1 41
+ 1.630051 4 0 ping 64 ------- 0 5.0 0.0 -1 41
- 1.630051 4 0 ping 64 ------- 0 5.0 0.0 -1 41
r 1.640102 4 0 ping 64 ------- 0 5.0 0.0 -1 41
- 1.68 2 4 ping 300000 ------- 0 2.0 3.0 -1 33
r 1.69 2 4 ping 300000 ------- 0 2.0 3.0 -1 25
+ 1.69 4 3 ping 300000 ------- 0 2.0 3.0 -1 25
- 1.69 4 3 ping 300000 ------- 0 2.0 3.0 -1 25
+ 1.7 0 4 ping 500000 ------- 0 0.0 5.0 -1 42
+ 1.7 2 4 ping 300000 ------- 0 2.0 3.0 -1 43
r 1.7 4 3 ping 300000 ------- 0 2.0 3.0 -1 19
+ 1.7 3 4 ping 64 ------- 0 3.0 2.0 -1 44
- 1.7 3 4 ping 64 ------- 0 3.0 2.0 -1 44
r 1.710051 3 4 ping 64 ------- 0 3.0 2.0 -1 44
+ 1.710051 4 2 ping 64 ------- 0 3.0 2.0 -1 44
- 1.710051 4 2 ping 64 ------- 0 3.0 2.0 -1 44
r 1.720102 4 2 ping 64 ------- 0 3.0 2.0 -1 44
+ 1.8 0 4 ping 500000 ------- 0 0.0 5.0 -1 45
d 1.8 0 4 ping 500000 ------- 0 0.0 5.0 -1 45
+ 1.8 2 4 ping 300000 ------- 0 2.0 3.0 -1 46
d 1.8 2 4 ping 300000 ------- 0 2.0 3.0 -1 46
+ 1.9 0 4 ping 500000 ------- 0 0.0 5.0 -1 47
d 1.9 0 4 ping 500000 ------- 0 0.0 5.0 -1 47
+ 1.9 2 4 ping 300000 ------- 0 2.0 3.0 -1 48
d 1.9 2 4 ping 300000 ------- 0 2.0 3.0 -1 48
- 1.92 2 4 ping 300000 ------- 0 2.0 3.0 -1 38
r 1.93 2 4 ping 300000 ------- 0 2.0 3.0 -1 33
+ 1.93 4 3 ping 300000 ------- 0 2.0 3.0 -1 33
- 1.93 4 3 ping 300000 ------- 0 2.0 3.0 -1 33
r 1.94 4 3 ping 300000 ------- 0 2.0 3.0 -1 25
+ 1.94 3 4 ping 64 ------- 0 3.0 2.0 -1 49
- 1.94 3 4 ping 64 ------- 0 3.0 2.0 -1 49
r 1.950051 3 4 ping 64 ------- 0 3.0 2.0 -1 49
+ 1.950051 4 2 ping 64 ------- 0 3.0 2.0 -1 49
- 1.950051 4 2 ping 64 ------- 0 3.0 2.0 -1 49
r 1.960102 4 2 ping 64 ------- 0 3.0 2.0 -1 49
+ 2 0 4 ping 500000 ------- 0 0.0 5.0 -1 50
d 2 0 4 ping 500000 ------- 0 0.0 5.0 -1 50
+ 2 2 4 ping 300000 ------- 0 2.0 3.0 -1 51
- 2 0 4 ping 500000 ------- 0 0.0 5.0 -1 10
r 2.01 0 4 ping 500000 ------- 0 0.0 5.0 -1 8
+ 2.01 4 5 ping 500000 ------- 0 0.0 5.0 -1 8
- 2.01 4 5 ping 500000 ------- 0 0.0 5.0 -1 8
r 2.02 4 5 ping 500000 ------- 0 0.0 5.0 -1 6
+ 2.02 5 4 ping 64 ------- 0 5.0 0.0 -1 52
- 2.02 5 4 ping 64 ------- 0 5.0 0.0 -1 52
r 2.030051 5 4 ping 64 ------- 0 5.0 0.0 -1 52
+ 2.030051 4 0 ping 64 ------- 0 5.0 0.0 -1 52
- 2.030051 4 0 ping 64 ------- 0 5.0 0.0 -1 52
r 2.040102 4 0 ping 64 ------- 0 5.0 0.0 -1 52
+ 2.1 0 4 ping 500000 ------- 0 0.0 5.0 -1 53
+ 2.1 2 4 ping 300000 ------- 0 2.0 3.0 -1 54
d 2.1 2 4 ping 300000 ------- 0 2.0 3.0 -1 54
- 2.16 2 4 ping 300000 ------- 0 2.0 3.0 -1 43
r 2.17 2 4 ping 300000 ------- 0 2.0 3.0 -1 38
+ 2.17 4 3 ping 300000 ------- 0 2.0 3.0 -1 38
- 2.17 4 3 ping 300000 ------- 0 2.0 3.0 -1 38
r 2.18 4 3 ping 300000 ------- 0 2.0 3.0 -1 33
+ 2.18 3 4 ping 64 ------- 0 3.0 2.0 -1 55
- 2.18 3 4 ping 64 ------- 0 3.0 2.0 -1 55
r 2.190051 3 4 ping 64 ------- 0 3.0 2.0 -1 55
+ 2.190051 4 2 ping 64 ------- 0 3.0 2.0 -1 55
- 2.190051 4 2 ping 64 ------- 0 3.0 2.0 -1 55
+ 2.2 0 4 ping 500000 ------- 0 0.0 5.0 -1 56
d 2.2 0 4 ping 500000 ------- 0 0.0 5.0 -1 56
+ 2.2 2 4 ping 300000 ------- 0 2.0 3.0 -1 57
r 2.200102 4 2 ping 64 ------- 0 3.0 2.0 -1 55
+ 2.3 0 4 ping 500000 ------- 0 0.0 5.0 -1 58
d 2.3 0 4 ping 500000 ------- 0 0.0 5.0 -1 58
+ 2.3 2 4 ping 300000 ------- 0 2.0 3.0 -1 59
d 2.3 2 4 ping 300000 ------- 0 2.0 3.0 -1 59
+ 2.4 0 4 ping 500000 ------- 0 0.0 5.0 -1 60
d 2.4 0 4 ping 500000 ------- 0 0.0 5.0 -1 60
+ 2.4 2 4 ping 300000 ------- 0 2.0 3.0 -1 61
d 2.4 2 4 ping 300000 ------- 0 2.0 3.0 -1 61
- 2.4 0 4 ping 500000 ------- 0 0.0 5.0 -1 21
- 2.4 2 4 ping 300000 ------- 0 2.0 3.0 -1 51
r 2.41 0 4 ping 500000 ------- 0 0.0 5.0 -1 10
+ 2.41 4 5 ping 500000 ------- 0 0.0 5.0 -1 10
- 2.41 4 5 ping 500000 ------- 0 0.0 5.0 -1 10
r 2.41 2 4 ping 300000 ------- 0 2.0 3.0 -1 43
+ 2.41 4 3 ping 300000 ------- 0 2.0 3.0 -1 43
- 2.41 4 3 ping 300000 ------- 0 2.0 3.0 -1 43
r 2.42 4 3 ping 300000 ------- 0 2.0 3.0 -1 38
+ 2.42 3 4 ping 64 ------- 0 3.0 2.0 -1 62
- 2.42 3 4 ping 64 ------- 0 3.0 2.0 -1 62
r 2.42 4 5 ping 500000 ------- 0 0.0 5.0 -1 8
+ 2.42 5 4 ping 64 ------- 0 5.0 0.0 -1 63
- 2.42 5 4 ping 64 ------- 0 5.0 0.0 -1 63
r 2.430051 3 4 ping 64 ------- 0 3.0 2.0 -1 62
+ 2.430051 4 2 ping 64 ------- 0 3.0 2.0 -1 62
- 2.430051 4 2 ping 64 ------- 0 3.0 2.0 -1 62
r 2.430051 5 4 ping 64 ------- 0 5.0 0.0 -1 63
+ 2.430051 4 0 ping 64 ------- 0 5.0 0.0 -1 63
- 2.430051 4 0 ping 64 ------- 0 5.0 0.0 -1 63
r 2.440102 4 2 ping 64 ------- 0 3.0 2.0 -1 62
r 2.440102 4 0 ping 64 ------- 0 5.0 0.0 -1 63
+ 2.5 0 4 ping 500000 ------- 0 0.0 5.0 -1 64
+ 2.5 2 4 ping 300000 ------- 0 2.0 3.0 -1 65
+ 2.6 0 4 ping 500000 ------- 0 0.0 5.0 -1 66
d 2.6 0 4 ping 500000 ------- 0 0.0 5.0 -1 66
+ 2.6 2 4 ping 300000 ------- 0 2.0 3.0 -1 67
d 2.6 2 4 ping 300000 ------- 0 2.0 3.0 -1 67
- 2.64 2 4 ping 300000 ------- 0 2.0 3.0 -1 57
r 2.65 2 4 ping 300000 ------- 0 2.0 3.0 -1 51
+ 2.65 4 3 ping 300000 ------- 0 2.0 3.0 -1 51
- 2.65 4 3 ping 300000 ------- 0 2.0 3.0 -1 51
r 2.66 4 3 ping 300000 ------- 0 2.0 3.0 -1 43
+ 2.66 3 4 ping 64 ------- 0 3.0 2.0 -1 68
- 2.66 3 4 ping 64 ------- 0 3.0 2.0 -1 68
r 2.670051 3 4 ping 64 ------- 0 3.0 2.0 -1 68
+ 2.670051 4 2 ping 64 ------- 0 3.0 2.0 -1 68
- 2.670051 4 2 ping 64 ------- 0 3.0 2.0 -1 68
r 2.680102 4 2 ping 64 ------- 0 3.0 2.0 -1 68
+ 2.7 0 4 ping 500000 ------- 0 0.0 5.0 -1 69
d 2.7 0 4 ping 500000 ------- 0 0.0 5.0 -1 69
+ 2.7 2 4 ping 300000 ------- 0 2.0 3.0 -1 70
+ 2.8 0 4 ping 500000 ------- 0 0.0 5.0 -1 71
d 2.8 0 4 ping 500000 ------- 0 0.0 5.0 -1 71
+ 2.8 2 4 ping 300000 ------- 0 2.0 3.0 -1 72
d 2.8 2 4 ping 300000 ------- 0 2.0 3.0 -1 72
- 2.8 0 4 ping 500000 ------- 0 0.0 5.0 -1 32
r 2.81 0 4 ping 500000 ------- 0 0.0 5.0 -1 21
+ 2.81 4 5 ping 500000 ------- 0 0.0 5.0 -1 21
- 2.81 4 5 ping 500000 ------- 0 0.0 5.0 -1 21
r 2.82 4 5 ping 500000 ------- 0 0.0 5.0 -1 10
+ 2.82 5 4 ping 64 ------- 0 5.0 0.0 -1 73
- 2.82 5 4 ping 64 ------- 0 5.0 0.0 -1 73
r 2.830051 5 4 ping 64 ------- 0 5.0 0.0 -1 73
+ 2.830051 4 0 ping 64 ------- 0 5.0 0.0 -1 73
- 2.830051 4 0 ping 64 ------- 0 5.0 0.0 -1 73
r 2.840102 4 0 ping 64 ------- 0 5.0 0.0 -1 73
- 2.88 2 4 ping 300000 ------- 0 2.0 3.0 -1 65
r 2.89 2 4 ping 300000 ------- 0 2.0 3.0 -1 57
+ 2.89 4 3 ping 300000 ------- 0 2.0 3.0 -1 57
- 2.89 4 3 ping 300000 ------- 0 2.0 3.0 -1 57
+ 2.9 0 4 ping 500000 ------- 0 0.0 5.0 -1 74
+ 2.9 2 4 ping 300000 ------- 0 2.0 3.0 -1 75
r 2.9 4 3 ping 300000 ------- 0 2.0 3.0 -1 51
+ 2.9 3 4 ping 64 ------- 0 3.0 2.0 -1 76
- 2.9 3 4 ping 64 ------- 0 3.0 2.0 -1 76
r 2.910051 3 4 ping 64 ------- 0 3.0 2.0 -1 76
+ 2.910051 4 2 ping 64 ------- 0 3.0 2.0 -1 76
- 2.910051 4 2 ping 64 ------- 0 3.0 2.0 -1 76
r 2.920102 4 2 ping 64 ------- 0 3.0 2.0 -1 76
